TACC:  Starting up job 547925 
TACC:  Starting parallel tasks... 

     Program PWSCF v.6.8 starts on 14Nov2022 at 22:45:54 

     This program is part of the open-source Quantum ESPRESSO suite
     for quantum simulation of materials; please cite
         "P. Giannozzi et al., J. Phys.:Condens. Matter 21 395502 (2009);
         "P. Giannozzi et al., J. Phys.:Condens. Matter 29 465901 (2017);
         "P. Giannozzi et al., J. Chem. Phys. 152 154105 (2020);
          URL http://www.quantum-espresso.org", 
     in publications or presentations arising from this work. More details at
     http://www.quantum-espresso.org/quote

     Parallel version (MPI), running on   128 processors

     MPI processes distributed on     1 nodes
     K-points division:     npool     =       8
     R & G space division:  proc/nbgrp/npool/nimage =      16
     226192 MiB available memory on the printing compute node when the environment starts
 
     Waiting for input...
     Reading input from standard input
Warning: card &CELL ignored
Warning: card / ignored

     Current dimensions of program PWSCF are:
     Max number of different atomic species (ntypx) = 10
     Max number of k-points (npk) =  40000
     Max angular momentum in pseudopotentials (lmaxx) =  4
     Found symmetry operation: I + ( -0.5000 -0.5000 -0.5000)
     This is a supercell, fractional translations are disabled

     Subspace diagonalization in iterative solution of the eigenvalue problem:
     a serial algorithm will be used

 
     Parallelization info
     --------------------
     sticks:   dense  smooth     PW     G-vecs:    dense   smooth      PW
     Min          49      19      6                  886      223      44
     Max          51      20      7                  888      224      47
     Sum         795     315    109                14197     3579     727
 
     Using Slab Decomposition
 


     bravais-lattice index     =            8
     lattice parameter (alat)  =       4.8507  a.u.
     unit-cell volume          =     161.4083 (a.u.)^3
     number of atoms/cell      =            2
     number of atomic types    =            1
     number of electrons       =        22.00
     number of Kohn-Sham states=           24
     kinetic-energy cutoff     =      30.0000  Ry
     charge density cutoff     =     300.0000  Ry
     scf convergence threshold =      1.0E-10
     mixing beta               =       0.7000
     number of iterations used =            8  plain     mixing
     Exchange-correlation= SLA  PW   PBE  PBE
                           (   1   4   3   4   0   0   0)

     celldm(1)=   4.850691  celldm(2)=   1.414214  celldm(3)=   1.000000
     celldm(4)=   0.000000  celldm(5)=   0.000000  celldm(6)=   0.000000

     crystal axes: (cart. coord. in units of alat)
               a(1) = (   1.000000   0.000000   0.000000 )  
               a(2) = (   0.000000   1.414214   0.000000 )  
               a(3) = (   0.000000   0.000000   1.000000 )  

     reciprocal axes: (cart. coord. in units 2 pi/alat)
               b(1) = (  1.000000  0.000000  0.000000 )  
               b(2) = (  0.000000  0.707107  0.000000 )  
               b(3) = (  0.000000  0.000000  1.000000 )  


     PseudoPot. # 1 for Cu read from file:
     ./Cu.pbe-n-van_ak.UPF
     MD5 check sum: 6ee597d772d3c3a5f292224aabafa40a
     Pseudo is Ultrasoft + core correction, Zval = 11.0
     Generated by new atomic code, or converted to UPF format
     Using radial grid of  867 points,  6 beta functions with: 
                l(1) =   0
                l(2) =   0
                l(3) =   1
                l(4) =   1
                l(5) =   2
                l(6) =   2
     Q(r) pseudized with  8 coefficients,  rinner =    1.400   1.400   1.400
                                                       1.400   1.400

     atomic species   valence    mass     pseudopotential
        Cu            11.00    63.54600     Cu( 1.00)

     16 Sym. Ops., with inversion, found


                                    s                        frac. trans.

      isym =  1     identity                                     

 cryst.   s( 1) = (     1          0          0      )
                  (     0          1          0      )
                  (     0          0          1      )

 cart.    s( 1) = (  1.0000000  0.0000000  0.0000000 )
                  (  0.0000000  1.0000000  0.0000000 )
                  (  0.0000000  0.0000000  1.0000000 )


      isym =  2     180 deg rotation - cart. axis [0,0,1]        

 cryst.   s( 2) = (    -1          0          0      )
                  (     0         -1          0      )
                  (     0          0          1      )

 cart.    s( 2) = ( -1.0000000  0.0000000  0.0000000 )
                  (  0.0000000 -1.0000000  0.0000000 )
                  (  0.0000000  0.0000000  1.0000000 )


      isym =  3     180 deg rotation - cart. axis [0,1,0]        

 cryst.   s( 3) = (    -1          0          0      )
                  (     0          1          0      )
                  (     0          0         -1      )

 cart.    s( 3) = ( -1.0000000  0.0000000  0.0000000 )
                  (  0.0000000  1.0000000  0.0000000 )
                  (  0.0000000  0.0000000 -1.0000000 )


      isym =  4     180 deg rotation - cart. axis [1,0,0]        

 cryst.   s( 4) = (     1          0          0      )
                  (     0         -1          0      )
                  (     0          0         -1      )

 cart.    s( 4) = (  1.0000000  0.0000000  0.0000000 )
                  (  0.0000000 -1.0000000  0.0000000 )
                  (  0.0000000  0.0000000 -1.0000000 )


      isym =  5     180 deg rotation - cart. axis [1,0,1]        

 cryst.   s( 5) = (     0          0          1      )
                  (     0         -1          0      )
                  (     1          0          0      )

 cart.    s( 5) = (  0.0000000  0.0000000  1.0000000 )
                  (  0.0000000 -1.0000000  0.0000000 )
                  (  1.0000000  0.0000000  0.0000000 )


      isym =  6     180 deg rotation - cart. axis [-1,0,1]       

 cryst.   s( 6) = (     0          0         -1      )
                  (     0         -1          0      )
                  (    -1          0          0      )

 cart.    s( 6) = (  0.0000000  0.0000000 -1.0000000 )
                  (  0.0000000 -1.0000000  0.0000000 )
                  ( -1.0000000  0.0000000  0.0000000 )


      isym =  7      90 deg rotation - cart. axis [0,1,0]        

 cryst.   s( 7) = (     0          0         -1      )
                  (     0          1          0      )
                  (     1          0          0      )

 cart.    s( 7) = (  0.0000000  0.0000000  1.0000000 )
                  (  0.0000000  1.0000000  0.0000000 )
                  ( -1.0000000  0.0000000  0.0000000 )


      isym =  8      90 deg rotation - cart. axis [0,-1,0]       

 cryst.   s( 8) = (     0          0          1      )
                  (     0          1          0      )
                  (    -1          0          0      )

 cart.    s( 8) = (  0.0000000  0.0000000 -1.0000000 )
                  (  0.0000000  1.0000000  0.0000000 )
                  (  1.0000000  0.0000000  0.0000000 )


      isym =  9     inversion                                    

 cryst.   s( 9) = (    -1          0          0      )
                  (     0         -1          0      )
                  (     0          0         -1      )

 cart.    s( 9) = ( -1.0000000  0.0000000  0.0000000 )
                  (  0.0000000 -1.0000000  0.0000000 )
                  (  0.0000000  0.0000000 -1.0000000 )


      isym = 10     inv. 180 deg rotation - cart. axis [0,0,1]   

 cryst.   s(10) = (     1          0          0      )
                  (     0          1          0      )
                  (     0          0         -1      )

 cart.    s(10) = (  1.0000000  0.0000000  0.0000000 )
                  (  0.0000000  1.0000000  0.0000000 )
                  (  0.0000000  0.0000000 -1.0000000 )


      isym = 11     inv. 180 deg rotation - cart. axis [0,1,0]   

 cryst.   s(11) = (     1          0          0      )
                  (     0         -1          0      )
                  (     0          0          1      )

 cart.    s(11) = (  1.0000000  0.0000000  0.0000000 )
                  (  0.0000000 -1.0000000  0.0000000 )
                  (  0.0000000  0.0000000  1.0000000 )


      isym = 12     inv. 180 deg rotation - cart. axis [1,0,0]   

 cryst.   s(12) = (    -1          0          0      )
                  (     0          1          0      )
                  (     0          0          1      )

 cart.    s(12) = ( -1.0000000  0.0000000  0.0000000 )
                  (  0.0000000  1.0000000  0.0000000 )
                  (  0.0000000  0.0000000  1.0000000 )


      isym = 13     inv. 180 deg rotation - cart. axis [1,0,1]   

 cryst.   s(13) = (     0          0         -1      )
                  (     0          1          0      )
                  (    -1          0          0      )

 cart.    s(13) = (  0.0000000  0.0000000 -1.0000000 )
                  (  0.0000000  1.0000000  0.0000000 )
                  ( -1.0000000  0.0000000  0.0000000 )


      isym = 14     inv. 180 deg rotation - cart. axis [-1,0,1]  

 cryst.   s(14) = (     0          0          1      )
                  (     0          1          0      )
                  (     1          0          0      )

 cart.    s(14) = (  0.0000000  0.0000000  1.0000000 )
                  (  0.0000000  1.0000000  0.0000000 )
                  (  1.0000000  0.0000000  0.0000000 )


      isym = 15     inv.  90 deg rotation - cart. axis [0,1,0]   

 cryst.   s(15) = (     0          0          1      )
                  (     0         -1          0      )
                  (    -1          0          0      )

 cart.    s(15) = (  0.0000000  0.0000000 -1.0000000 )
                  (  0.0000000 -1.0000000  0.0000000 )
                  (  1.0000000  0.0000000  0.0000000 )


      isym = 16     inv.  90 deg rotation - cart. axis [0,-1,0]  

 cryst.   s(16) = (     0          0         -1      )
                  (     0         -1          0      )
                  (     1          0          0      )

 cart.    s(16) = (  0.0000000  0.0000000  1.0000000 )
                  (  0.0000000 -1.0000000  0.0000000 )
                  ( -1.0000000  0.0000000  0.0000000 )


     point group D_4h(4/mmm)
     there are 10 classes
     the character table:

       E     2C4   C2    2C2'  2C2'' i     2S4   s_h   2s_v  2s_d 
A_1g   1.00  1.00  1.00  1.00  1.00  1.00  1.00  1.00  1.00  1.00
A_2g   1.00  1.00  1.00 -1.00 -1.00  1.00  1.00  1.00 -1.00 -1.00
B_1g   1.00 -1.00  1.00  1.00 -1.00  1.00 -1.00  1.00  1.00 -1.00
B_2g   1.00 -1.00  1.00 -1.00  1.00  1.00 -1.00  1.00 -1.00  1.00
E_g    2.00  0.00 -2.00  0.00  0.00  2.00  0.00 -2.00  0.00  0.00
A_1u   1.00  1.00  1.00  1.00  1.00 -1.00 -1.00 -1.00 -1.00 -1.00
A_2u   1.00  1.00  1.00 -1.00 -1.00 -1.00 -1.00 -1.00  1.00  1.00
B_1u   1.00 -1.00  1.00  1.00 -1.00 -1.00  1.00 -1.00 -1.00  1.00
B_2u   1.00 -1.00  1.00 -1.00  1.00 -1.00  1.00 -1.00  1.00 -1.00
E_u    2.00  0.00 -2.00  0.00  0.00 -2.00  0.00  2.00  0.00  0.00

     the symmetry operations in each class and the name of the first element:

     E        1
          identity                                               
     2C4      7    8
           90 deg rotation - cart. axis [0,1,0]                  
     C2       3
          180 deg rotation - cart. axis [0,1,0]                  
     2C2'     2    4
          180 deg rotation - cart. axis [0,0,1]                  
     2C2''    5    6
          180 deg rotation - cart. axis [1,0,1]                  
     i        9
          inversion                                              
     2S4     15   16
          inv.  90 deg rotation - cart. axis [0,1,0]             
     s_h     11
          inv. 180 deg rotation - cart. axis [0,1,0]             
     2s_v    10   12
          inv. 180 deg rotation - cart. axis [0,0,1]             
     2s_d    13   14
          inv. 180 deg rotation - cart. axis [1,0,1]             

   Cartesian axes

     site n.     atom                  positions (alat units)
         1           Cu  tau(   1) = (   0.0000000   0.0000000   0.0000000  )
         2           Cu  tau(   2) = (   0.5000000   0.7071068   0.5000000  )

   Crystallographic axes

     site n.     atom                  positions (cryst. coord.)
         1           Cu  tau(   1) = (  0.0000000  0.0000000  0.0000000  )
         2           Cu  tau(   2) = (  0.5000000  0.5000000  0.5000000  )

     number of k points=   385  Marzari-Vanderbilt smearing, width (Ry)=  0.0100
                       cart. coord. in units 2pi/alat
        k(    1) = (   0.0000000   0.0000000   0.0000000), wk =   0.0005144
        k(    2) = (   0.0000000   0.0000000   0.0555556), wk =   0.0020576
        k(    3) = (   0.0000000   0.0000000   0.1111111), wk =   0.0020576
        k(    4) = (   0.0000000   0.0000000   0.1666667), wk =   0.0020576
        k(    5) = (   0.0000000   0.0000000   0.2222222), wk =   0.0020576
        k(    6) = (   0.0000000   0.0000000   0.2777778), wk =   0.0020576
        k(    7) = (   0.0000000   0.0000000   0.3333333), wk =   0.0020576
        k(    8) = (   0.0000000   0.0000000   0.3888889), wk =   0.0020576
        k(    9) = (   0.0000000   0.0000000   0.4444444), wk =   0.0020576
        k(   10) = (   0.0000000   0.0000000  -0.5000000), wk =   0.0010288
        k(   11) = (   0.0000000   0.0589256   0.0000000), wk =   0.0010288
        k(   12) = (   0.0000000   0.0589256   0.0555556), wk =   0.0041152
        k(   13) = (   0.0000000   0.0589256   0.1111111), wk =   0.0041152
        k(   14) = (   0.0000000   0.0589256   0.1666667), wk =   0.0041152
        k(   15) = (   0.0000000   0.0589256   0.2222222), wk =   0.0041152
        k(   16) = (   0.0000000   0.0589256   0.2777778), wk =   0.0041152
        k(   17) = (   0.0000000   0.0589256   0.3333333), wk =   0.0041152
        k(   18) = (   0.0000000   0.0589256   0.3888889), wk =   0.0041152
        k(   19) = (   0.0000000   0.0589256   0.4444444), wk =   0.0041152
        k(   20) = (   0.0000000   0.0589256  -0.5000000), wk =   0.0020576
        k(   21) = (   0.0000000   0.1178511   0.0000000), wk =   0.0010288
        k(   22) = (   0.0000000   0.1178511   0.0555556), wk =   0.0041152
        k(   23) = (   0.0000000   0.1178511   0.1111111), wk =   0.0041152
        k(   24) = (   0.0000000   0.1178511   0.1666667), wk =   0.0041152
        k(   25) = (   0.0000000   0.1178511   0.2222222), wk =   0.0041152
        k(   26) = (   0.0000000   0.1178511   0.2777778), wk =   0.0041152
        k(   27) = (   0.0000000   0.1178511   0.3333333), wk =   0.0041152
        k(   28) = (   0.0000000   0.1178511   0.3888889), wk =   0.0041152
        k(   29) = (   0.0000000   0.1178511   0.4444444), wk =   0.0041152
        k(   30) = (   0.0000000   0.1178511  -0.5000000), wk =   0.0020576
        k(   31) = (   0.0000000   0.1767767   0.0000000), wk =   0.0010288
        k(   32) = (   0.0000000   0.1767767   0.0555556), wk =   0.0041152
        k(   33) = (   0.0000000   0.1767767   0.1111111), wk =   0.0041152
        k(   34) = (   0.0000000   0.1767767   0.1666667), wk =   0.0041152
        k(   35) = (   0.0000000   0.1767767   0.2222222), wk =   0.0041152
        k(   36) = (   0.0000000   0.1767767   0.2777778), wk =   0.0041152
        k(   37) = (   0.0000000   0.1767767   0.3333333), wk =   0.0041152
        k(   38) = (   0.0000000   0.1767767   0.3888889), wk =   0.0041152
        k(   39) = (   0.0000000   0.1767767   0.4444444), wk =   0.0041152
        k(   40) = (   0.0000000   0.1767767  -0.5000000), wk =   0.0020576
        k(   41) = (   0.0000000   0.2357023   0.0000000), wk =   0.0010288
        k(   42) = (   0.0000000   0.2357023   0.0555556), wk =   0.0041152
        k(   43) = (   0.0000000   0.2357023   0.1111111), wk =   0.0041152
        k(   44) = (   0.0000000   0.2357023   0.1666667), wk =   0.0041152
        k(   45) = (   0.0000000   0.2357023   0.2222222), wk =   0.0041152
        k(   46) = (   0.0000000   0.2357023   0.2777778), wk =   0.0041152
        k(   47) = (   0.0000000   0.2357023   0.3333333), wk =   0.0041152
        k(   48) = (   0.0000000   0.2357023   0.3888889), wk =   0.0041152
        k(   49) = (   0.0000000   0.2357023   0.4444444), wk =   0.0041152
        k(   50) = (   0.0000000   0.2357023  -0.5000000), wk =   0.0020576
        k(   51) = (   0.0000000   0.2946278   0.0000000), wk =   0.0010288
        k(   52) = (   0.0000000   0.2946278   0.0555556), wk =   0.0041152
        k(   53) = (   0.0000000   0.2946278   0.1111111), wk =   0.0041152
        k(   54) = (   0.0000000   0.2946278   0.1666667), wk =   0.0041152
        k(   55) = (   0.0000000   0.2946278   0.2222222), wk =   0.0041152
        k(   56) = (   0.0000000   0.2946278   0.2777778), wk =   0.0041152
        k(   57) = (   0.0000000   0.2946278   0.3333333), wk =   0.0041152
        k(   58) = (   0.0000000   0.2946278   0.3888889), wk =   0.0041152
        k(   59) = (   0.0000000   0.2946278   0.4444444), wk =   0.0041152
        k(   60) = (   0.0000000   0.2946278  -0.5000000), wk =   0.0020576
        k(   61) = (   0.0000000  -0.3535534   0.0000000), wk =   0.0005144
        k(   62) = (   0.0000000  -0.3535534   0.0555556), wk =   0.0020576
        k(   63) = (   0.0000000  -0.3535534   0.1111111), wk =   0.0020576
        k(   64) = (   0.0000000  -0.3535534   0.1666667), wk =   0.0020576
        k(   65) = (   0.0000000  -0.3535534   0.2222222), wk =   0.0020576
        k(   66) = (   0.0000000  -0.3535534   0.2777778), wk =   0.0020576
        k(   67) = (   0.0000000  -0.3535534   0.3333333), wk =   0.0020576
        k(   68) = (   0.0000000  -0.3535534   0.3888889), wk =   0.0020576
        k(   69) = (   0.0000000  -0.3535534   0.4444444), wk =   0.0020576
        k(   70) = (   0.0000000  -0.3535534  -0.5000000), wk =   0.0010288
        k(   71) = (   0.0555556   0.0000000   0.0555556), wk =   0.0020576
        k(   72) = (   0.0555556   0.0000000   0.1111111), wk =   0.0041152
        k(   73) = (   0.0555556   0.0000000   0.1666667), wk =   0.0041152
        k(   74) = (   0.0555556   0.0000000   0.2222222), wk =   0.0041152
        k(   75) = (   0.0555556   0.0000000   0.2777778), wk =   0.0041152
        k(   76) = (   0.0555556   0.0000000   0.3333333), wk =   0.0041152
        k(   77) = (   0.0555556   0.0000000   0.3888889), wk =   0.0041152
        k(   78) = (   0.0555556   0.0000000   0.4444444), wk =   0.0041152
        k(   79) = (   0.0555556   0.0000000  -0.5000000), wk =   0.0020576
        k(   80) = (   0.0555556   0.0589256   0.0555556), wk =   0.0041152
        k(   81) = (   0.0555556   0.0589256   0.1111111), wk =   0.0082305
        k(   82) = (   0.0555556   0.0589256   0.1666667), wk =   0.0082305
        k(   83) = (   0.0555556   0.0589256   0.2222222), wk =   0.0082305
        k(   84) = (   0.0555556   0.0589256   0.2777778), wk =   0.0082305
        k(   85) = (   0.0555556   0.0589256   0.3333333), wk =   0.0082305
        k(   86) = (   0.0555556   0.0589256   0.3888889), wk =   0.0082305
        k(   87) = (   0.0555556   0.0589256   0.4444444), wk =   0.0082305
        k(   88) = (   0.0555556   0.0589256  -0.5000000), wk =   0.0041152
        k(   89) = (   0.0555556   0.1178511   0.0555556), wk =   0.0041152
        k(   90) = (   0.0555556   0.1178511   0.1111111), wk =   0.0082305
        k(   91) = (   0.0555556   0.1178511   0.1666667), wk =   0.0082305
        k(   92) = (   0.0555556   0.1178511   0.2222222), wk =   0.0082305
        k(   93) = (   0.0555556   0.1178511   0.2777778), wk =   0.0082305
        k(   94) = (   0.0555556   0.1178511   0.3333333), wk =   0.0082305
        k(   95) = (   0.0555556   0.1178511   0.3888889), wk =   0.0082305
        k(   96) = (   0.0555556   0.1178511   0.4444444), wk =   0.0082305
        k(   97) = (   0.0555556   0.1178511  -0.5000000), wk =   0.0041152
        k(   98) = (   0.0555556   0.1767767   0.0555556), wk =   0.0041152
        k(   99) = (   0.0555556   0.1767767   0.1111111), wk =   0.0082305
        k(  100) = (   0.0555556   0.1767767   0.1666667), wk =   0.0082305
        k(  101) = (   0.0555556   0.1767767   0.2222222), wk =   0.0082305
        k(  102) = (   0.0555556   0.1767767   0.2777778), wk =   0.0082305
        k(  103) = (   0.0555556   0.1767767   0.3333333), wk =   0.0082305
        k(  104) = (   0.0555556   0.1767767   0.3888889), wk =   0.0082305
        k(  105) = (   0.0555556   0.1767767   0.4444444), wk =   0.0082305
        k(  106) = (   0.0555556   0.1767767  -0.5000000), wk =   0.0041152
        k(  107) = (   0.0555556   0.2357023   0.0555556), wk =   0.0041152
        k(  108) = (   0.0555556   0.2357023   0.1111111), wk =   0.0082305
        k(  109) = (   0.0555556   0.2357023   0.1666667), wk =   0.0082305
        k(  110) = (   0.0555556   0.2357023   0.2222222), wk =   0.0082305
        k(  111) = (   0.0555556   0.2357023   0.2777778), wk =   0.0082305
        k(  112) = (   0.0555556   0.2357023   0.3333333), wk =   0.0082305
        k(  113) = (   0.0555556   0.2357023   0.3888889), wk =   0.0082305
        k(  114) = (   0.0555556   0.2357023   0.4444444), wk =   0.0082305
        k(  115) = (   0.0555556   0.2357023  -0.5000000), wk =   0.0041152
        k(  116) = (   0.0555556   0.2946278   0.0555556), wk =   0.0041152
        k(  117) = (   0.0555556   0.2946278   0.1111111), wk =   0.0082305
        k(  118) = (   0.0555556   0.2946278   0.1666667), wk =   0.0082305
        k(  119) = (   0.0555556   0.2946278   0.2222222), wk =   0.0082305
        k(  120) = (   0.0555556   0.2946278   0.2777778), wk =   0.0082305
        k(  121) = (   0.0555556   0.2946278   0.3333333), wk =   0.0082305
        k(  122) = (   0.0555556   0.2946278   0.3888889), wk =   0.0082305
        k(  123) = (   0.0555556   0.2946278   0.4444444), wk =   0.0082305
        k(  124) = (   0.0555556   0.2946278  -0.5000000), wk =   0.0041152
        k(  125) = (   0.0555556  -0.3535534   0.0555556), wk =   0.0020576
        k(  126) = (   0.0555556  -0.3535534   0.1111111), wk =   0.0041152
        k(  127) = (   0.0555556  -0.3535534   0.1666667), wk =   0.0041152
        k(  128) = (   0.0555556  -0.3535534   0.2222222), wk =   0.0041152
        k(  129) = (   0.0555556  -0.3535534   0.2777778), wk =   0.0041152
        k(  130) = (   0.0555556  -0.3535534   0.3333333), wk =   0.0041152
        k(  131) = (   0.0555556  -0.3535534   0.3888889), wk =   0.0041152
        k(  132) = (   0.0555556  -0.3535534   0.4444444), wk =   0.0041152
        k(  133) = (   0.0555556  -0.3535534  -0.5000000), wk =   0.0020576
        k(  134) = (   0.1111111   0.0000000   0.1111111), wk =   0.0020576
        k(  135) = (   0.1111111   0.0000000   0.1666667), wk =   0.0041152
        k(  136) = (   0.1111111   0.0000000   0.2222222), wk =   0.0041152
        k(  137) = (   0.1111111   0.0000000   0.2777778), wk =   0.0041152
        k(  138) = (   0.1111111   0.0000000   0.3333333), wk =   0.0041152
        k(  139) = (   0.1111111   0.0000000   0.3888889), wk =   0.0041152
        k(  140) = (   0.1111111   0.0000000   0.4444444), wk =   0.0041152
        k(  141) = (   0.1111111   0.0000000  -0.5000000), wk =   0.0020576
        k(  142) = (   0.1111111   0.0589256   0.1111111), wk =   0.0041152
        k(  143) = (   0.1111111   0.0589256   0.1666667), wk =   0.0082305
        k(  144) = (   0.1111111   0.0589256   0.2222222), wk =   0.0082305
        k(  145) = (   0.1111111   0.0589256   0.2777778), wk =   0.0082305
        k(  146) = (   0.1111111   0.0589256   0.3333333), wk =   0.0082305
        k(  147) = (   0.1111111   0.0589256   0.3888889), wk =   0.0082305
        k(  148) = (   0.1111111   0.0589256   0.4444444), wk =   0.0082305
        k(  149) = (   0.1111111   0.0589256  -0.5000000), wk =   0.0041152
        k(  150) = (   0.1111111   0.1178511   0.1111111), wk =   0.0041152
        k(  151) = (   0.1111111   0.1178511   0.1666667), wk =   0.0082305
        k(  152) = (   0.1111111   0.1178511   0.2222222), wk =   0.0082305
        k(  153) = (   0.1111111   0.1178511   0.2777778), wk =   0.0082305
        k(  154) = (   0.1111111   0.1178511   0.3333333), wk =   0.0082305
        k(  155) = (   0.1111111   0.1178511   0.3888889), wk =   0.0082305
        k(  156) = (   0.1111111   0.1178511   0.4444444), wk =   0.0082305
        k(  157) = (   0.1111111   0.1178511  -0.5000000), wk =   0.0041152
        k(  158) = (   0.1111111   0.1767767   0.1111111), wk =   0.0041152
        k(  159) = (   0.1111111   0.1767767   0.1666667), wk =   0.0082305
        k(  160) = (   0.1111111   0.1767767   0.2222222), wk =   0.0082305
        k(  161) = (   0.1111111   0.1767767   0.2777778), wk =   0.0082305
        k(  162) = (   0.1111111   0.1767767   0.3333333), wk =   0.0082305
        k(  163) = (   0.1111111   0.1767767   0.3888889), wk =   0.0082305
        k(  164) = (   0.1111111   0.1767767   0.4444444), wk =   0.0082305
        k(  165) = (   0.1111111   0.1767767  -0.5000000), wk =   0.0041152
        k(  166) = (   0.1111111   0.2357023   0.1111111), wk =   0.0041152
        k(  167) = (   0.1111111   0.2357023   0.1666667), wk =   0.0082305
        k(  168) = (   0.1111111   0.2357023   0.2222222), wk =   0.0082305
        k(  169) = (   0.1111111   0.2357023   0.2777778), wk =   0.0082305
        k(  170) = (   0.1111111   0.2357023   0.3333333), wk =   0.0082305
        k(  171) = (   0.1111111   0.2357023   0.3888889), wk =   0.0082305
        k(  172) = (   0.1111111   0.2357023   0.4444444), wk =   0.0082305
        k(  173) = (   0.1111111   0.2357023  -0.5000000), wk =   0.0041152
        k(  174) = (   0.1111111   0.2946278   0.1111111), wk =   0.0041152
        k(  175) = (   0.1111111   0.2946278   0.1666667), wk =   0.0082305
        k(  176) = (   0.1111111   0.2946278   0.2222222), wk =   0.0082305
        k(  177) = (   0.1111111   0.2946278   0.2777778), wk =   0.0082305
        k(  178) = (   0.1111111   0.2946278   0.3333333), wk =   0.0082305
        k(  179) = (   0.1111111   0.2946278   0.3888889), wk =   0.0082305
        k(  180) = (   0.1111111   0.2946278   0.4444444), wk =   0.0082305
        k(  181) = (   0.1111111   0.2946278  -0.5000000), wk =   0.0041152
        k(  182) = (   0.1111111  -0.3535534   0.1111111), wk =   0.0020576
        k(  183) = (   0.1111111  -0.3535534   0.1666667), wk =   0.0041152
        k(  184) = (   0.1111111  -0.3535534   0.2222222), wk =   0.0041152
        k(  185) = (   0.1111111  -0.3535534   0.2777778), wk =   0.0041152
        k(  186) = (   0.1111111  -0.3535534   0.3333333), wk =   0.0041152
        k(  187) = (   0.1111111  -0.3535534   0.3888889), wk =   0.0041152
        k(  188) = (   0.1111111  -0.3535534   0.4444444), wk =   0.0041152
        k(  189) = (   0.1111111  -0.3535534  -0.5000000), wk =   0.0020576
        k(  190) = (   0.1666667   0.0000000   0.1666667), wk =   0.0020576
        k(  191) = (   0.1666667   0.0000000   0.2222222), wk =   0.0041152
        k(  192) = (   0.1666667   0.0000000   0.2777778), wk =   0.0041152
        k(  193) = (   0.1666667   0.0000000   0.3333333), wk =   0.0041152
        k(  194) = (   0.1666667   0.0000000   0.3888889), wk =   0.0041152
        k(  195) = (   0.1666667   0.0000000   0.4444444), wk =   0.0041152
        k(  196) = (   0.1666667   0.0000000  -0.5000000), wk =   0.0020576
        k(  197) = (   0.1666667   0.0589256   0.1666667), wk =   0.0041152
        k(  198) = (   0.1666667   0.0589256   0.2222222), wk =   0.0082305
        k(  199) = (   0.1666667   0.0589256   0.2777778), wk =   0.0082305
        k(  200) = (   0.1666667   0.0589256   0.3333333), wk =   0.0082305
        k(  201) = (   0.1666667   0.0589256   0.3888889), wk =   0.0082305
        k(  202) = (   0.1666667   0.0589256   0.4444444), wk =   0.0082305
        k(  203) = (   0.1666667   0.0589256  -0.5000000), wk =   0.0041152
        k(  204) = (   0.1666667   0.1178511   0.1666667), wk =   0.0041152
        k(  205) = (   0.1666667   0.1178511   0.2222222), wk =   0.0082305
        k(  206) = (   0.1666667   0.1178511   0.2777778), wk =   0.0082305
        k(  207) = (   0.1666667   0.1178511   0.3333333), wk =   0.0082305
        k(  208) = (   0.1666667   0.1178511   0.3888889), wk =   0.0082305
        k(  209) = (   0.1666667   0.1178511   0.4444444), wk =   0.0082305
        k(  210) = (   0.1666667   0.1178511  -0.5000000), wk =   0.0041152
        k(  211) = (   0.1666667   0.1767767   0.1666667), wk =   0.0041152
        k(  212) = (   0.1666667   0.1767767   0.2222222), wk =   0.0082305
        k(  213) = (   0.1666667   0.1767767   0.2777778), wk =   0.0082305
        k(  214) = (   0.1666667   0.1767767   0.3333333), wk =   0.0082305
        k(  215) = (   0.1666667   0.1767767   0.3888889), wk =   0.0082305
        k(  216) = (   0.1666667   0.1767767   0.4444444), wk =   0.0082305
        k(  217) = (   0.1666667   0.1767767  -0.5000000), wk =   0.0041152
        k(  218) = (   0.1666667   0.2357023   0.1666667), wk =   0.0041152
        k(  219) = (   0.1666667   0.2357023   0.2222222), wk =   0.0082305
        k(  220) = (   0.1666667   0.2357023   0.2777778), wk =   0.0082305
        k(  221) = (   0.1666667   0.2357023   0.3333333), wk =   0.0082305
        k(  222) = (   0.1666667   0.2357023   0.3888889), wk =   0.0082305
        k(  223) = (   0.1666667   0.2357023   0.4444444), wk =   0.0082305
        k(  224) = (   0.1666667   0.2357023  -0.5000000), wk =   0.0041152
        k(  225) = (   0.1666667   0.2946278   0.1666667), wk =   0.0041152
        k(  226) = (   0.1666667   0.2946278   0.2222222), wk =   0.0082305
        k(  227) = (   0.1666667   0.2946278   0.2777778), wk =   0.0082305
        k(  228) = (   0.1666667   0.2946278   0.3333333), wk =   0.0082305
        k(  229) = (   0.1666667   0.2946278   0.3888889), wk =   0.0082305
        k(  230) = (   0.1666667   0.2946278   0.4444444), wk =   0.0082305
        k(  231) = (   0.1666667   0.2946278  -0.5000000), wk =   0.0041152
        k(  232) = (   0.1666667  -0.3535534   0.1666667), wk =   0.0020576
        k(  233) = (   0.1666667  -0.3535534   0.2222222), wk =   0.0041152
        k(  234) = (   0.1666667  -0.3535534   0.2777778), wk =   0.0041152
        k(  235) = (   0.1666667  -0.3535534   0.3333333), wk =   0.0041152
        k(  236) = (   0.1666667  -0.3535534   0.3888889), wk =   0.0041152
        k(  237) = (   0.1666667  -0.3535534   0.4444444), wk =   0.0041152
        k(  238) = (   0.1666667  -0.3535534  -0.5000000), wk =   0.0020576
        k(  239) = (   0.2222222   0.0000000   0.2222222), wk =   0.0020576
        k(  240) = (   0.2222222   0.0000000   0.2777778), wk =   0.0041152
        k(  241) = (   0.2222222   0.0000000   0.3333333), wk =   0.0041152
        k(  242) = (   0.2222222   0.0000000   0.3888889), wk =   0.0041152
        k(  243) = (   0.2222222   0.0000000   0.4444444), wk =   0.0041152
        k(  244) = (   0.2222222   0.0000000  -0.5000000), wk =   0.0020576
        k(  245) = (   0.2222222   0.0589256   0.2222222), wk =   0.0041152
        k(  246) = (   0.2222222   0.0589256   0.2777778), wk =   0.0082305
        k(  247) = (   0.2222222   0.0589256   0.3333333), wk =   0.0082305
        k(  248) = (   0.2222222   0.0589256   0.3888889), wk =   0.0082305
        k(  249) = (   0.2222222   0.0589256   0.4444444), wk =   0.0082305
        k(  250) = (   0.2222222   0.0589256  -0.5000000), wk =   0.0041152
        k(  251) = (   0.2222222   0.1178511   0.2222222), wk =   0.0041152
        k(  252) = (   0.2222222   0.1178511   0.2777778), wk =   0.0082305
        k(  253) = (   0.2222222   0.1178511   0.3333333), wk =   0.0082305
        k(  254) = (   0.2222222   0.1178511   0.3888889), wk =   0.0082305
        k(  255) = (   0.2222222   0.1178511   0.4444444), wk =   0.0082305
        k(  256) = (   0.2222222   0.1178511  -0.5000000), wk =   0.0041152
        k(  257) = (   0.2222222   0.1767767   0.2222222), wk =   0.0041152
        k(  258) = (   0.2222222   0.1767767   0.2777778), wk =   0.0082305
        k(  259) = (   0.2222222   0.1767767   0.3333333), wk =   0.0082305
        k(  260) = (   0.2222222   0.1767767   0.3888889), wk =   0.0082305
        k(  261) = (   0.2222222   0.1767767   0.4444444), wk =   0.0082305
        k(  262) = (   0.2222222   0.1767767  -0.5000000), wk =   0.0041152
        k(  263) = (   0.2222222   0.2357023   0.2222222), wk =   0.0041152
        k(  264) = (   0.2222222   0.2357023   0.2777778), wk =   0.0082305
        k(  265) = (   0.2222222   0.2357023   0.3333333), wk =   0.0082305
        k(  266) = (   0.2222222   0.2357023   0.3888889), wk =   0.0082305
        k(  267) = (   0.2222222   0.2357023   0.4444444), wk =   0.0082305
        k(  268) = (   0.2222222   0.2357023  -0.5000000), wk =   0.0041152
        k(  269) = (   0.2222222   0.2946278   0.2222222), wk =   0.0041152
        k(  270) = (   0.2222222   0.2946278   0.2777778), wk =   0.0082305
        k(  271) = (   0.2222222   0.2946278   0.3333333), wk =   0.0082305
        k(  272) = (   0.2222222   0.2946278   0.3888889), wk =   0.0082305
        k(  273) = (   0.2222222   0.2946278   0.4444444), wk =   0.0082305
        k(  274) = (   0.2222222   0.2946278  -0.5000000), wk =   0.0041152
        k(  275) = (   0.2222222  -0.3535534   0.2222222), wk =   0.0020576
        k(  276) = (   0.2222222  -0.3535534   0.2777778), wk =   0.0041152
        k(  277) = (   0.2222222  -0.3535534   0.3333333), wk =   0.0041152
        k(  278) = (   0.2222222  -0.3535534   0.3888889), wk =   0.0041152
        k(  279) = (   0.2222222  -0.3535534   0.4444444), wk =   0.0041152
        k(  280) = (   0.2222222  -0.3535534  -0.5000000), wk =   0.0020576
        k(  281) = (   0.2777778   0.0000000   0.2777778), wk =   0.0020576
        k(  282) = (   0.2777778   0.0000000   0.3333333), wk =   0.0041152
        k(  283) = (   0.2777778   0.0000000   0.3888889), wk =   0.0041152
        k(  284) = (   0.2777778   0.0000000   0.4444444), wk =   0.0041152
        k(  285) = (   0.2777778   0.0000000  -0.5000000), wk =   0.0020576
        k(  286) = (   0.2777778   0.0589256   0.2777778), wk =   0.0041152
        k(  287) = (   0.2777778   0.0589256   0.3333333), wk =   0.0082305
        k(  288) = (   0.2777778   0.0589256   0.3888889), wk =   0.0082305
        k(  289) = (   0.2777778   0.0589256   0.4444444), wk =   0.0082305
        k(  290) = (   0.2777778   0.0589256  -0.5000000), wk =   0.0041152
        k(  291) = (   0.2777778   0.1178511   0.2777778), wk =   0.0041152
        k(  292) = (   0.2777778   0.1178511   0.3333333), wk =   0.0082305
        k(  293) = (   0.2777778   0.1178511   0.3888889), wk =   0.0082305
        k(  294) = (   0.2777778   0.1178511   0.4444444), wk =   0.0082305
        k(  295) = (   0.2777778   0.1178511  -0.5000000), wk =   0.0041152
        k(  296) = (   0.2777778   0.1767767   0.2777778), wk =   0.0041152
        k(  297) = (   0.2777778   0.1767767   0.3333333), wk =   0.0082305
        k(  298) = (   0.2777778   0.1767767   0.3888889), wk =   0.0082305
        k(  299) = (   0.2777778   0.1767767   0.4444444), wk =   0.0082305
        k(  300) = (   0.2777778   0.1767767  -0.5000000), wk =   0.0041152
        k(  301) = (   0.2777778   0.2357023   0.2777778), wk =   0.0041152
        k(  302) = (   0.2777778   0.2357023   0.3333333), wk =   0.0082305
        k(  303) = (   0.2777778   0.2357023   0.3888889), wk =   0.0082305
        k(  304) = (   0.2777778   0.2357023   0.4444444), wk =   0.0082305
        k(  305) = (   0.2777778   0.2357023  -0.5000000), wk =   0.0041152
        k(  306) = (   0.2777778   0.2946278   0.2777778), wk =   0.0041152
        k(  307) = (   0.2777778   0.2946278   0.3333333), wk =   0.0082305
        k(  308) = (   0.2777778   0.2946278   0.3888889), wk =   0.0082305
        k(  309) = (   0.2777778   0.2946278   0.4444444), wk =   0.0082305
        k(  310) = (   0.2777778   0.2946278  -0.5000000), wk =   0.0041152
        k(  311) = (   0.2777778  -0.3535534   0.2777778), wk =   0.0020576
        k(  312) = (   0.2777778  -0.3535534   0.3333333), wk =   0.0041152
        k(  313) = (   0.2777778  -0.3535534   0.3888889), wk =   0.0041152
        k(  314) = (   0.2777778  -0.3535534   0.4444444), wk =   0.0041152
        k(  315) = (   0.2777778  -0.3535534  -0.5000000), wk =   0.0020576
        k(  316) = (   0.3333333   0.0000000   0.3333333), wk =   0.0020576
        k(  317) = (   0.3333333   0.0000000   0.3888889), wk =   0.0041152
        k(  318) = (   0.3333333   0.0000000   0.4444444), wk =   0.0041152
        k(  319) = (   0.3333333   0.0000000  -0.5000000), wk =   0.0020576
        k(  320) = (   0.3333333   0.0589256   0.3333333), wk =   0.0041152
        k(  321) = (   0.3333333   0.0589256   0.3888889), wk =   0.0082305
        k(  322) = (   0.3333333   0.0589256   0.4444444), wk =   0.0082305
        k(  323) = (   0.3333333   0.0589256  -0.5000000), wk =   0.0041152
        k(  324) = (   0.3333333   0.1178511   0.3333333), wk =   0.0041152
        k(  325) = (   0.3333333   0.1178511   0.3888889), wk =   0.0082305
        k(  326) = (   0.3333333   0.1178511   0.4444444), wk =   0.0082305
        k(  327) = (   0.3333333   0.1178511  -0.5000000), wk =   0.0041152
        k(  328) = (   0.3333333   0.1767767   0.3333333), wk =   0.0041152
        k(  329) = (   0.3333333   0.1767767   0.3888889), wk =   0.0082305
        k(  330) = (   0.3333333   0.1767767   0.4444444), wk =   0.0082305
        k(  331) = (   0.3333333   0.1767767  -0.5000000), wk =   0.0041152
        k(  332) = (   0.3333333   0.2357023   0.3333333), wk =   0.0041152
        k(  333) = (   0.3333333   0.2357023   0.3888889), wk =   0.0082305
        k(  334) = (   0.3333333   0.2357023   0.4444444), wk =   0.0082305
        k(  335) = (   0.3333333   0.2357023  -0.5000000), wk =   0.0041152
        k(  336) = (   0.3333333   0.2946278   0.3333333), wk =   0.0041152
        k(  337) = (   0.3333333   0.2946278   0.3888889), wk =   0.0082305
        k(  338) = (   0.3333333   0.2946278   0.4444444), wk =   0.0082305
        k(  339) = (   0.3333333   0.2946278  -0.5000000), wk =   0.0041152
        k(  340) = (   0.3333333  -0.3535534   0.3333333), wk =   0.0020576
        k(  341) = (   0.3333333  -0.3535534   0.3888889), wk =   0.0041152
        k(  342) = (   0.3333333  -0.3535534   0.4444444), wk =   0.0041152
        k(  343) = (   0.3333333  -0.3535534  -0.5000000), wk =   0.0020576
        k(  344) = (   0.3888889   0.0000000   0.3888889), wk =   0.0020576
        k(  345) = (   0.3888889   0.0000000   0.4444444), wk =   0.0041152
        k(  346) = (   0.3888889   0.0000000  -0.5000000), wk =   0.0020576
        k(  347) = (   0.3888889   0.0589256   0.3888889), wk =   0.0041152
        k(  348) = (   0.3888889   0.0589256   0.4444444), wk =   0.0082305
        k(  349) = (   0.3888889   0.0589256  -0.5000000), wk =   0.0041152
        k(  350) = (   0.3888889   0.1178511   0.3888889), wk =   0.0041152
        k(  351) = (   0.3888889   0.1178511   0.4444444), wk =   0.0082305
        k(  352) = (   0.3888889   0.1178511  -0.5000000), wk =   0.0041152
        k(  353) = (   0.3888889   0.1767767   0.3888889), wk =   0.0041152
        k(  354) = (   0.3888889   0.1767767   0.4444444), wk =   0.0082305
        k(  355) = (   0.3888889   0.1767767  -0.5000000), wk =   0.0041152
        k(  356) = (   0.3888889   0.2357023   0.3888889), wk =   0.0041152
        k(  357) = (   0.3888889   0.2357023   0.4444444), wk =   0.0082305
        k(  358) = (   0.3888889   0.2357023  -0.5000000), wk =   0.0041152
        k(  359) = (   0.3888889   0.2946278   0.3888889), wk =   0.0041152
        k(  360) = (   0.3888889   0.2946278   0.4444444), wk =   0.0082305
        k(  361) = (   0.3888889   0.2946278  -0.5000000), wk =   0.0041152
        k(  362) = (   0.3888889  -0.3535534   0.3888889), wk =   0.0020576
        k(  363) = (   0.3888889  -0.3535534   0.4444444), wk =   0.0041152
        k(  364) = (   0.3888889  -0.3535534  -0.5000000), wk =   0.0020576
        k(  365) = (   0.4444444   0.0000000   0.4444444), wk =   0.0020576
        k(  366) = (   0.4444444   0.0000000  -0.5000000), wk =   0.0020576
        k(  367) = (   0.4444444   0.0589256   0.4444444), wk =   0.0041152
        k(  368) = (   0.4444444   0.0589256  -0.5000000), wk =   0.0041152
        k(  369) = (   0.4444444   0.1178511   0.4444444), wk =   0.0041152
        k(  370) = (   0.4444444   0.1178511  -0.5000000), wk =   0.0041152
        k(  371) = (   0.4444444   0.1767767   0.4444444), wk =   0.0041152
        k(  372) = (   0.4444444   0.1767767  -0.5000000), wk =   0.0041152
        k(  373) = (   0.4444444   0.2357023   0.4444444), wk =   0.0041152
        k(  374) = (   0.4444444   0.2357023  -0.5000000), wk =   0.0041152
        k(  375) = (   0.4444444   0.2946278   0.4444444), wk =   0.0041152
        k(  376) = (   0.4444444   0.2946278  -0.5000000), wk =   0.0041152
        k(  377) = (   0.4444444  -0.3535534   0.4444444), wk =   0.0020576
        k(  378) = (   0.4444444  -0.3535534  -0.5000000), wk =   0.0020576
        k(  379) = (  -0.5000000   0.0000000  -0.5000000), wk =   0.0005144
        k(  380) = (  -0.5000000   0.0589256  -0.5000000), wk =   0.0010288
        k(  381) = (  -0.5000000   0.1178511  -0.5000000), wk =   0.0010288
        k(  382) = (  -0.5000000   0.1767767  -0.5000000), wk =   0.0010288
        k(  383) = (  -0.5000000   0.2357023  -0.5000000), wk =   0.0010288
        k(  384) = (  -0.5000000   0.2946278  -0.5000000), wk =   0.0010288
        k(  385) = (  -0.5000000  -0.3535534  -0.5000000), wk =   0.0005144

                       cryst. coord.
        k(    1) = (   0.0000000   0.0000000   0.0000000), wk =   0.0005144
        k(    2) = (   0.0000000   0.0000000   0.0555556), wk =   0.0020576
        k(    3) = (   0.0000000   0.0000000   0.1111111), wk =   0.0020576
        k(    4) = (   0.0000000   0.0000000   0.1666667), wk =   0.0020576
        k(    5) = (   0.0000000   0.0000000   0.2222222), wk =   0.0020576
        k(    6) = (   0.0000000   0.0000000   0.2777778), wk =   0.0020576
        k(    7) = (   0.0000000   0.0000000   0.3333333), wk =   0.0020576
        k(    8) = (   0.0000000   0.0000000   0.3888889), wk =   0.0020576
        k(    9) = (   0.0000000   0.0000000   0.4444444), wk =   0.0020576
        k(   10) = (   0.0000000   0.0000000  -0.5000000), wk =   0.0010288
        k(   11) = (   0.0000000   0.0833333   0.0000000), wk =   0.0010288
        k(   12) = (   0.0000000   0.0833333   0.0555556), wk =   0.0041152
        k(   13) = (   0.0000000   0.0833333   0.1111111), wk =   0.0041152
        k(   14) = (   0.0000000   0.0833333   0.1666667), wk =   0.0041152
        k(   15) = (   0.0000000   0.0833333   0.2222222), wk =   0.0041152
        k(   16) = (   0.0000000   0.0833333   0.2777778), wk =   0.0041152
        k(   17) = (   0.0000000   0.0833333   0.3333333), wk =   0.0041152
        k(   18) = (   0.0000000   0.0833333   0.3888889), wk =   0.0041152
        k(   19) = (   0.0000000   0.0833333   0.4444444), wk =   0.0041152
        k(   20) = (   0.0000000   0.0833333  -0.5000000), wk =   0.0020576
        k(   21) = (   0.0000000   0.1666667   0.0000000), wk =   0.0010288
        k(   22) = (   0.0000000   0.1666667   0.0555556), wk =   0.0041152
        k(   23) = (   0.0000000   0.1666667   0.1111111), wk =   0.0041152
        k(   24) = (   0.0000000   0.1666667   0.1666667), wk =   0.0041152
        k(   25) = (   0.0000000   0.1666667   0.2222222), wk =   0.0041152
        k(   26) = (   0.0000000   0.1666667   0.2777778), wk =   0.0041152
        k(   27) = (   0.0000000   0.1666667   0.3333333), wk =   0.0041152
        k(   28) = (   0.0000000   0.1666667   0.3888889), wk =   0.0041152
        k(   29) = (   0.0000000   0.1666667   0.4444444), wk =   0.0041152
        k(   30) = (   0.0000000   0.1666667  -0.5000000), wk =   0.0020576
        k(   31) = (   0.0000000   0.2500000   0.0000000), wk =   0.0010288
        k(   32) = (   0.0000000   0.2500000   0.0555556), wk =   0.0041152
        k(   33) = (   0.0000000   0.2500000   0.1111111), wk =   0.0041152
        k(   34) = (   0.0000000   0.2500000   0.1666667), wk =   0.0041152
        k(   35) = (   0.0000000   0.2500000   0.2222222), wk =   0.0041152
        k(   36) = (   0.0000000   0.2500000   0.2777778), wk =   0.0041152
        k(   37) = (   0.0000000   0.2500000   0.3333333), wk =   0.0041152
        k(   38) = (   0.0000000   0.2500000   0.3888889), wk =   0.0041152
        k(   39) = (   0.0000000   0.2500000   0.4444444), wk =   0.0041152
        k(   40) = (   0.0000000   0.2500000  -0.5000000), wk =   0.0020576
        k(   41) = (   0.0000000   0.3333333   0.0000000), wk =   0.0010288
        k(   42) = (   0.0000000   0.3333333   0.0555556), wk =   0.0041152
        k(   43) = (   0.0000000   0.3333333   0.1111111), wk =   0.0041152
        k(   44) = (   0.0000000   0.3333333   0.1666667), wk =   0.0041152
        k(   45) = (   0.0000000   0.3333333   0.2222222), wk =   0.0041152
        k(   46) = (   0.0000000   0.3333333   0.2777778), wk =   0.0041152
        k(   47) = (   0.0000000   0.3333333   0.3333333), wk =   0.0041152
        k(   48) = (   0.0000000   0.3333333   0.3888889), wk =   0.0041152
        k(   49) = (   0.0000000   0.3333333   0.4444444), wk =   0.0041152
        k(   50) = (   0.0000000   0.3333333  -0.5000000), wk =   0.0020576
        k(   51) = (   0.0000000   0.4166667   0.0000000), wk =   0.0010288
        k(   52) = (   0.0000000   0.4166667   0.0555556), wk =   0.0041152
        k(   53) = (   0.0000000   0.4166667   0.1111111), wk =   0.0041152
        k(   54) = (   0.0000000   0.4166667   0.1666667), wk =   0.0041152
        k(   55) = (   0.0000000   0.4166667   0.2222222), wk =   0.0041152
        k(   56) = (   0.0000000   0.4166667   0.2777778), wk =   0.0041152
        k(   57) = (   0.0000000   0.4166667   0.3333333), wk =   0.0041152
        k(   58) = (   0.0000000   0.4166667   0.3888889), wk =   0.0041152
        k(   59) = (   0.0000000   0.4166667   0.4444444), wk =   0.0041152
        k(   60) = (   0.0000000   0.4166667  -0.5000000), wk =   0.0020576
        k(   61) = (   0.0000000  -0.5000000   0.0000000), wk =   0.0005144
        k(   62) = (   0.0000000  -0.5000000   0.0555556), wk =   0.0020576
        k(   63) = (   0.0000000  -0.5000000   0.1111111), wk =   0.0020576
        k(   64) = (   0.0000000  -0.5000000   0.1666667), wk =   0.0020576
        k(   65) = (   0.0000000  -0.5000000   0.2222222), wk =   0.0020576
        k(   66) = (   0.0000000  -0.5000000   0.2777778), wk =   0.0020576
        k(   67) = (   0.0000000  -0.5000000   0.3333333), wk =   0.0020576
        k(   68) = (   0.0000000  -0.5000000   0.3888889), wk =   0.0020576
        k(   69) = (   0.0000000  -0.5000000   0.4444444), wk =   0.0020576
        k(   70) = (   0.0000000  -0.5000000  -0.5000000), wk =   0.0010288
        k(   71) = (   0.0555556   0.0000000   0.0555556), wk =   0.0020576
        k(   72) = (   0.0555556   0.0000000   0.1111111), wk =   0.0041152
        k(   73) = (   0.0555556   0.0000000   0.1666667), wk =   0.0041152
        k(   74) = (   0.0555556   0.0000000   0.2222222), wk =   0.0041152
        k(   75) = (   0.0555556   0.0000000   0.2777778), wk =   0.0041152
        k(   76) = (   0.0555556   0.0000000   0.3333333), wk =   0.0041152
        k(   77) = (   0.0555556   0.0000000   0.3888889), wk =   0.0041152
        k(   78) = (   0.0555556   0.0000000   0.4444444), wk =   0.0041152
        k(   79) = (   0.0555556   0.0000000  -0.5000000), wk =   0.0020576
        k(   80) = (   0.0555556   0.0833333   0.0555556), wk =   0.0041152
        k(   81) = (   0.0555556   0.0833333   0.1111111), wk =   0.0082305
        k(   82) = (   0.0555556   0.0833333   0.1666667), wk =   0.0082305
        k(   83) = (   0.0555556   0.0833333   0.2222222), wk =   0.0082305
        k(   84) = (   0.0555556   0.0833333   0.2777778), wk =   0.0082305
        k(   85) = (   0.0555556   0.0833333   0.3333333), wk =   0.0082305
        k(   86) = (   0.0555556   0.0833333   0.3888889), wk =   0.0082305
        k(   87) = (   0.0555556   0.0833333   0.4444444), wk =   0.0082305
        k(   88) = (   0.0555556   0.0833333  -0.5000000), wk =   0.0041152
        k(   89) = (   0.0555556   0.1666667   0.0555556), wk =   0.0041152
        k(   90) = (   0.0555556   0.1666667   0.1111111), wk =   0.0082305
        k(   91) = (   0.0555556   0.1666667   0.1666667), wk =   0.0082305
        k(   92) = (   0.0555556   0.1666667   0.2222222), wk =   0.0082305
        k(   93) = (   0.0555556   0.1666667   0.2777778), wk =   0.0082305
        k(   94) = (   0.0555556   0.1666667   0.3333333), wk =   0.0082305
        k(   95) = (   0.0555556   0.1666667   0.3888889), wk =   0.0082305
        k(   96) = (   0.0555556   0.1666667   0.4444444), wk =   0.0082305
        k(   97) = (   0.0555556   0.1666667  -0.5000000), wk =   0.0041152
        k(   98) = (   0.0555556   0.2500000   0.0555556), wk =   0.0041152
        k(   99) = (   0.0555556   0.2500000   0.1111111), wk =   0.0082305
        k(  100) = (   0.0555556   0.2500000   0.1666667), wk =   0.0082305
        k(  101) = (   0.0555556   0.2500000   0.2222222), wk =   0.0082305
        k(  102) = (   0.0555556   0.2500000   0.2777778), wk =   0.0082305
        k(  103) = (   0.0555556   0.2500000   0.3333333), wk =   0.0082305
        k(  104) = (   0.0555556   0.2500000   0.3888889), wk =   0.0082305
        k(  105) = (   0.0555556   0.2500000   0.4444444), wk =   0.0082305
        k(  106) = (   0.0555556   0.2500000  -0.5000000), wk =   0.0041152
        k(  107) = (   0.0555556   0.3333333   0.0555556), wk =   0.0041152
        k(  108) = (   0.0555556   0.3333333   0.1111111), wk =   0.0082305
        k(  109) = (   0.0555556   0.3333333   0.1666667), wk =   0.0082305
        k(  110) = (   0.0555556   0.3333333   0.2222222), wk =   0.0082305
        k(  111) = (   0.0555556   0.3333333   0.2777778), wk =   0.0082305
        k(  112) = (   0.0555556   0.3333333   0.3333333), wk =   0.0082305
        k(  113) = (   0.0555556   0.3333333   0.3888889), wk =   0.0082305
        k(  114) = (   0.0555556   0.3333333   0.4444444), wk =   0.0082305
        k(  115) = (   0.0555556   0.3333333  -0.5000000), wk =   0.0041152
        k(  116) = (   0.0555556   0.4166667   0.0555556), wk =   0.0041152
        k(  117) = (   0.0555556   0.4166667   0.1111111), wk =   0.0082305
        k(  118) = (   0.0555556   0.4166667   0.1666667), wk =   0.0082305
        k(  119) = (   0.0555556   0.4166667   0.2222222), wk =   0.0082305
        k(  120) = (   0.0555556   0.4166667   0.2777778), wk =   0.0082305
        k(  121) = (   0.0555556   0.4166667   0.3333333), wk =   0.0082305
        k(  122) = (   0.0555556   0.4166667   0.3888889), wk =   0.0082305
        k(  123) = (   0.0555556   0.4166667   0.4444444), wk =   0.0082305
        k(  124) = (   0.0555556   0.4166667  -0.5000000), wk =   0.0041152
        k(  125) = (   0.0555556  -0.5000000   0.0555556), wk =   0.0020576
        k(  126) = (   0.0555556  -0.5000000   0.1111111), wk =   0.0041152
        k(  127) = (   0.0555556  -0.5000000   0.1666667), wk =   0.0041152
        k(  128) = (   0.0555556  -0.5000000   0.2222222), wk =   0.0041152
        k(  129) = (   0.0555556  -0.5000000   0.2777778), wk =   0.0041152
        k(  130) = (   0.0555556  -0.5000000   0.3333333), wk =   0.0041152
        k(  131) = (   0.0555556  -0.5000000   0.3888889), wk =   0.0041152
        k(  132) = (   0.0555556  -0.5000000   0.4444444), wk =   0.0041152
        k(  133) = (   0.0555556  -0.5000000  -0.5000000), wk =   0.0020576
        k(  134) = (   0.1111111   0.0000000   0.1111111), wk =   0.0020576
        k(  135) = (   0.1111111   0.0000000   0.1666667), wk =   0.0041152
        k(  136) = (   0.1111111   0.0000000   0.2222222), wk =   0.0041152
        k(  137) = (   0.1111111   0.0000000   0.2777778), wk =   0.0041152
        k(  138) = (   0.1111111   0.0000000   0.3333333), wk =   0.0041152
        k(  139) = (   0.1111111   0.0000000   0.3888889), wk =   0.0041152
        k(  140) = (   0.1111111   0.0000000   0.4444444), wk =   0.0041152
        k(  141) = (   0.1111111   0.0000000  -0.5000000), wk =   0.0020576
        k(  142) = (   0.1111111   0.0833333   0.1111111), wk =   0.0041152
        k(  143) = (   0.1111111   0.0833333   0.1666667), wk =   0.0082305
        k(  144) = (   0.1111111   0.0833333   0.2222222), wk =   0.0082305
        k(  145) = (   0.1111111   0.0833333   0.2777778), wk =   0.0082305
        k(  146) = (   0.1111111   0.0833333   0.3333333), wk =   0.0082305
        k(  147) = (   0.1111111   0.0833333   0.3888889), wk =   0.0082305
        k(  148) = (   0.1111111   0.0833333   0.4444444), wk =   0.0082305
        k(  149) = (   0.1111111   0.0833333  -0.5000000), wk =   0.0041152
        k(  150) = (   0.1111111   0.1666667   0.1111111), wk =   0.0041152
        k(  151) = (   0.1111111   0.1666667   0.1666667), wk =   0.0082305
        k(  152) = (   0.1111111   0.1666667   0.2222222), wk =   0.0082305
        k(  153) = (   0.1111111   0.1666667   0.2777778), wk =   0.0082305
        k(  154) = (   0.1111111   0.1666667   0.3333333), wk =   0.0082305
        k(  155) = (   0.1111111   0.1666667   0.3888889), wk =   0.0082305
        k(  156) = (   0.1111111   0.1666667   0.4444444), wk =   0.0082305
        k(  157) = (   0.1111111   0.1666667  -0.5000000), wk =   0.0041152
        k(  158) = (   0.1111111   0.2500000   0.1111111), wk =   0.0041152
        k(  159) = (   0.1111111   0.2500000   0.1666667), wk =   0.0082305
        k(  160) = (   0.1111111   0.2500000   0.2222222), wk =   0.0082305
        k(  161) = (   0.1111111   0.2500000   0.2777778), wk =   0.0082305
        k(  162) = (   0.1111111   0.2500000   0.3333333), wk =   0.0082305
        k(  163) = (   0.1111111   0.2500000   0.3888889), wk =   0.0082305
        k(  164) = (   0.1111111   0.2500000   0.4444444), wk =   0.0082305
        k(  165) = (   0.1111111   0.2500000  -0.5000000), wk =   0.0041152
        k(  166) = (   0.1111111   0.3333333   0.1111111), wk =   0.0041152
        k(  167) = (   0.1111111   0.3333333   0.1666667), wk =   0.0082305
        k(  168) = (   0.1111111   0.3333333   0.2222222), wk =   0.0082305
        k(  169) = (   0.1111111   0.3333333   0.2777778), wk =   0.0082305
        k(  170) = (   0.1111111   0.3333333   0.3333333), wk =   0.0082305
        k(  171) = (   0.1111111   0.3333333   0.3888889), wk =   0.0082305
        k(  172) = (   0.1111111   0.3333333   0.4444444), wk =   0.0082305
        k(  173) = (   0.1111111   0.3333333  -0.5000000), wk =   0.0041152
        k(  174) = (   0.1111111   0.4166667   0.1111111), wk =   0.0041152
        k(  175) = (   0.1111111   0.4166667   0.1666667), wk =   0.0082305
        k(  176) = (   0.1111111   0.4166667   0.2222222), wk =   0.0082305
        k(  177) = (   0.1111111   0.4166667   0.2777778), wk =   0.0082305
        k(  178) = (   0.1111111   0.4166667   0.3333333), wk =   0.0082305
        k(  179) = (   0.1111111   0.4166667   0.3888889), wk =   0.0082305
        k(  180) = (   0.1111111   0.4166667   0.4444444), wk =   0.0082305
        k(  181) = (   0.1111111   0.4166667  -0.5000000), wk =   0.0041152
        k(  182) = (   0.1111111  -0.5000000   0.1111111), wk =   0.0020576
        k(  183) = (   0.1111111  -0.5000000   0.1666667), wk =   0.0041152
        k(  184) = (   0.1111111  -0.5000000   0.2222222), wk =   0.0041152
        k(  185) = (   0.1111111  -0.5000000   0.2777778), wk =   0.0041152
        k(  186) = (   0.1111111  -0.5000000   0.3333333), wk =   0.0041152
        k(  187) = (   0.1111111  -0.5000000   0.3888889), wk =   0.0041152
        k(  188) = (   0.1111111  -0.5000000   0.4444444), wk =   0.0041152
        k(  189) = (   0.1111111  -0.5000000  -0.5000000), wk =   0.0020576
        k(  190) = (   0.1666667   0.0000000   0.1666667), wk =   0.0020576
        k(  191) = (   0.1666667   0.0000000   0.2222222), wk =   0.0041152
        k(  192) = (   0.1666667   0.0000000   0.2777778), wk =   0.0041152
        k(  193) = (   0.1666667   0.0000000   0.3333333), wk =   0.0041152
        k(  194) = (   0.1666667   0.0000000   0.3888889), wk =   0.0041152
        k(  195) = (   0.1666667   0.0000000   0.4444444), wk =   0.0041152
        k(  196) = (   0.1666667   0.0000000  -0.5000000), wk =   0.0020576
        k(  197) = (   0.1666667   0.0833333   0.1666667), wk =   0.0041152
        k(  198) = (   0.1666667   0.0833333   0.2222222), wk =   0.0082305
        k(  199) = (   0.1666667   0.0833333   0.2777778), wk =   0.0082305
        k(  200) = (   0.1666667   0.0833333   0.3333333), wk =   0.0082305
        k(  201) = (   0.1666667   0.0833333   0.3888889), wk =   0.0082305
        k(  202) = (   0.1666667   0.0833333   0.4444444), wk =   0.0082305
        k(  203) = (   0.1666667   0.0833333  -0.5000000), wk =   0.0041152
        k(  204) = (   0.1666667   0.1666667   0.1666667), wk =   0.0041152
        k(  205) = (   0.1666667   0.1666667   0.2222222), wk =   0.0082305
        k(  206) = (   0.1666667   0.1666667   0.2777778), wk =   0.0082305
        k(  207) = (   0.1666667   0.1666667   0.3333333), wk =   0.0082305
        k(  208) = (   0.1666667   0.1666667   0.3888889), wk =   0.0082305
        k(  209) = (   0.1666667   0.1666667   0.4444444), wk =   0.0082305
        k(  210) = (   0.1666667   0.1666667  -0.5000000), wk =   0.0041152
        k(  211) = (   0.1666667   0.2500000   0.1666667), wk =   0.0041152
        k(  212) = (   0.1666667   0.2500000   0.2222222), wk =   0.0082305
        k(  213) = (   0.1666667   0.2500000   0.2777778), wk =   0.0082305
        k(  214) = (   0.1666667   0.2500000   0.3333333), wk =   0.0082305
        k(  215) = (   0.1666667   0.2500000   0.3888889), wk =   0.0082305
        k(  216) = (   0.1666667   0.2500000   0.4444444), wk =   0.0082305
        k(  217) = (   0.1666667   0.2500000  -0.5000000), wk =   0.0041152
        k(  218) = (   0.1666667   0.3333333   0.1666667), wk =   0.0041152
        k(  219) = (   0.1666667   0.3333333   0.2222222), wk =   0.0082305
        k(  220) = (   0.1666667   0.3333333   0.2777778), wk =   0.0082305
        k(  221) = (   0.1666667   0.3333333   0.3333333), wk =   0.0082305
        k(  222) = (   0.1666667   0.3333333   0.3888889), wk =   0.0082305
        k(  223) = (   0.1666667   0.3333333   0.4444444), wk =   0.0082305
        k(  224) = (   0.1666667   0.3333333  -0.5000000), wk =   0.0041152
        k(  225) = (   0.1666667   0.4166667   0.1666667), wk =   0.0041152
        k(  226) = (   0.1666667   0.4166667   0.2222222), wk =   0.0082305
        k(  227) = (   0.1666667   0.4166667   0.2777778), wk =   0.0082305
        k(  228) = (   0.1666667   0.4166667   0.3333333), wk =   0.0082305
        k(  229) = (   0.1666667   0.4166667   0.3888889), wk =   0.0082305
        k(  230) = (   0.1666667   0.4166667   0.4444444), wk =   0.0082305
        k(  231) = (   0.1666667   0.4166667  -0.5000000), wk =   0.0041152
        k(  232) = (   0.1666667  -0.5000000   0.1666667), wk =   0.0020576
        k(  233) = (   0.1666667  -0.5000000   0.2222222), wk =   0.0041152
        k(  234) = (   0.1666667  -0.5000000   0.2777778), wk =   0.0041152
        k(  235) = (   0.1666667  -0.5000000   0.3333333), wk =   0.0041152
        k(  236) = (   0.1666667  -0.5000000   0.3888889), wk =   0.0041152
        k(  237) = (   0.1666667  -0.5000000   0.4444444), wk =   0.0041152
        k(  238) = (   0.1666667  -0.5000000  -0.5000000), wk =   0.0020576
        k(  239) = (   0.2222222   0.0000000   0.2222222), wk =   0.0020576
        k(  240) = (   0.2222222   0.0000000   0.2777778), wk =   0.0041152
        k(  241) = (   0.2222222   0.0000000   0.3333333), wk =   0.0041152
        k(  242) = (   0.2222222   0.0000000   0.3888889), wk =   0.0041152
        k(  243) = (   0.2222222   0.0000000   0.4444444), wk =   0.0041152
        k(  244) = (   0.2222222   0.0000000  -0.5000000), wk =   0.0020576
        k(  245) = (   0.2222222   0.0833333   0.2222222), wk =   0.0041152
        k(  246) = (   0.2222222   0.0833333   0.2777778), wk =   0.0082305
        k(  247) = (   0.2222222   0.0833333   0.3333333), wk =   0.0082305
        k(  248) = (   0.2222222   0.0833333   0.3888889), wk =   0.0082305
        k(  249) = (   0.2222222   0.0833333   0.4444444), wk =   0.0082305
        k(  250) = (   0.2222222   0.0833333  -0.5000000), wk =   0.0041152
        k(  251) = (   0.2222222   0.1666667   0.2222222), wk =   0.0041152
        k(  252) = (   0.2222222   0.1666667   0.2777778), wk =   0.0082305
        k(  253) = (   0.2222222   0.1666667   0.3333333), wk =   0.0082305
        k(  254) = (   0.2222222   0.1666667   0.3888889), wk =   0.0082305
        k(  255) = (   0.2222222   0.1666667   0.4444444), wk =   0.0082305
        k(  256) = (   0.2222222   0.1666667  -0.5000000), wk =   0.0041152
        k(  257) = (   0.2222222   0.2500000   0.2222222), wk =   0.0041152
        k(  258) = (   0.2222222   0.2500000   0.2777778), wk =   0.0082305
        k(  259) = (   0.2222222   0.2500000   0.3333333), wk =   0.0082305
        k(  260) = (   0.2222222   0.2500000   0.3888889), wk =   0.0082305
        k(  261) = (   0.2222222   0.2500000   0.4444444), wk =   0.0082305
        k(  262) = (   0.2222222   0.2500000  -0.5000000), wk =   0.0041152
        k(  263) = (   0.2222222   0.3333333   0.2222222), wk =   0.0041152
        k(  264) = (   0.2222222   0.3333333   0.2777778), wk =   0.0082305
        k(  265) = (   0.2222222   0.3333333   0.3333333), wk =   0.0082305
        k(  266) = (   0.2222222   0.3333333   0.3888889), wk =   0.0082305
        k(  267) = (   0.2222222   0.3333333   0.4444444), wk =   0.0082305
        k(  268) = (   0.2222222   0.3333333  -0.5000000), wk =   0.0041152
        k(  269) = (   0.2222222   0.4166667   0.2222222), wk =   0.0041152
        k(  270) = (   0.2222222   0.4166667   0.2777778), wk =   0.0082305
        k(  271) = (   0.2222222   0.4166667   0.3333333), wk =   0.0082305
        k(  272) = (   0.2222222   0.4166667   0.3888889), wk =   0.0082305
        k(  273) = (   0.2222222   0.4166667   0.4444444), wk =   0.0082305
        k(  274) = (   0.2222222   0.4166667  -0.5000000), wk =   0.0041152
        k(  275) = (   0.2222222  -0.5000000   0.2222222), wk =   0.0020576
        k(  276) = (   0.2222222  -0.5000000   0.2777778), wk =   0.0041152
        k(  277) = (   0.2222222  -0.5000000   0.3333333), wk =   0.0041152
        k(  278) = (   0.2222222  -0.5000000   0.3888889), wk =   0.0041152
        k(  279) = (   0.2222222  -0.5000000   0.4444444), wk =   0.0041152
        k(  280) = (   0.2222222  -0.5000000  -0.5000000), wk =   0.0020576
        k(  281) = (   0.2777778   0.0000000   0.2777778), wk =   0.0020576
        k(  282) = (   0.2777778   0.0000000   0.3333333), wk =   0.0041152
        k(  283) = (   0.2777778   0.0000000   0.3888889), wk =   0.0041152
        k(  284) = (   0.2777778   0.0000000   0.4444444), wk =   0.0041152
        k(  285) = (   0.2777778   0.0000000  -0.5000000), wk =   0.0020576
        k(  286) = (   0.2777778   0.0833333   0.2777778), wk =   0.0041152
        k(  287) = (   0.2777778   0.0833333   0.3333333), wk =   0.0082305
        k(  288) = (   0.2777778   0.0833333   0.3888889), wk =   0.0082305
        k(  289) = (   0.2777778   0.0833333   0.4444444), wk =   0.0082305
        k(  290) = (   0.2777778   0.0833333  -0.5000000), wk =   0.0041152
        k(  291) = (   0.2777778   0.1666667   0.2777778), wk =   0.0041152
        k(  292) = (   0.2777778   0.1666667   0.3333333), wk =   0.0082305
        k(  293) = (   0.2777778   0.1666667   0.3888889), wk =   0.0082305
        k(  294) = (   0.2777778   0.1666667   0.4444444), wk =   0.0082305
        k(  295) = (   0.2777778   0.1666667  -0.5000000), wk =   0.0041152
        k(  296) = (   0.2777778   0.2500000   0.2777778), wk =   0.0041152
        k(  297) = (   0.2777778   0.2500000   0.3333333), wk =   0.0082305
        k(  298) = (   0.2777778   0.2500000   0.3888889), wk =   0.0082305
        k(  299) = (   0.2777778   0.2500000   0.4444444), wk =   0.0082305
        k(  300) = (   0.2777778   0.2500000  -0.5000000), wk =   0.0041152
        k(  301) = (   0.2777778   0.3333333   0.2777778), wk =   0.0041152
        k(  302) = (   0.2777778   0.3333333   0.3333333), wk =   0.0082305
        k(  303) = (   0.2777778   0.3333333   0.3888889), wk =   0.0082305
        k(  304) = (   0.2777778   0.3333333   0.4444444), wk =   0.0082305
        k(  305) = (   0.2777778   0.3333333  -0.5000000), wk =   0.0041152
        k(  306) = (   0.2777778   0.4166667   0.2777778), wk =   0.0041152
        k(  307) = (   0.2777778   0.4166667   0.3333333), wk =   0.0082305
        k(  308) = (   0.2777778   0.4166667   0.3888889), wk =   0.0082305
        k(  309) = (   0.2777778   0.4166667   0.4444444), wk =   0.0082305
        k(  310) = (   0.2777778   0.4166667  -0.5000000), wk =   0.0041152
        k(  311) = (   0.2777778  -0.5000000   0.2777778), wk =   0.0020576
        k(  312) = (   0.2777778  -0.5000000   0.3333333), wk =   0.0041152
        k(  313) = (   0.2777778  -0.5000000   0.3888889), wk =   0.0041152
        k(  314) = (   0.2777778  -0.5000000   0.4444444), wk =   0.0041152
        k(  315) = (   0.2777778  -0.5000000  -0.5000000), wk =   0.0020576
        k(  316) = (   0.3333333   0.0000000   0.3333333), wk =   0.0020576
        k(  317) = (   0.3333333   0.0000000   0.3888889), wk =   0.0041152
        k(  318) = (   0.3333333   0.0000000   0.4444444), wk =   0.0041152
        k(  319) = (   0.3333333   0.0000000  -0.5000000), wk =   0.0020576
        k(  320) = (   0.3333333   0.0833333   0.3333333), wk =   0.0041152
        k(  321) = (   0.3333333   0.0833333   0.3888889), wk =   0.0082305
        k(  322) = (   0.3333333   0.0833333   0.4444444), wk =   0.0082305
        k(  323) = (   0.3333333   0.0833333  -0.5000000), wk =   0.0041152
        k(  324) = (   0.3333333   0.1666667   0.3333333), wk =   0.0041152
        k(  325) = (   0.3333333   0.1666667   0.3888889), wk =   0.0082305
        k(  326) = (   0.3333333   0.1666667   0.4444444), wk =   0.0082305
        k(  327) = (   0.3333333   0.1666667  -0.5000000), wk =   0.0041152
        k(  328) = (   0.3333333   0.2500000   0.3333333), wk =   0.0041152
        k(  329) = (   0.3333333   0.2500000   0.3888889), wk =   0.0082305
        k(  330) = (   0.3333333   0.2500000   0.4444444), wk =   0.0082305
        k(  331) = (   0.3333333   0.2500000  -0.5000000), wk =   0.0041152
        k(  332) = (   0.3333333   0.3333333   0.3333333), wk =   0.0041152
        k(  333) = (   0.3333333   0.3333333   0.3888889), wk =   0.0082305
        k(  334) = (   0.3333333   0.3333333   0.4444444), wk =   0.0082305
        k(  335) = (   0.3333333   0.3333333  -0.5000000), wk =   0.0041152
        k(  336) = (   0.3333333   0.4166667   0.3333333), wk =   0.0041152
        k(  337) = (   0.3333333   0.4166667   0.3888889), wk =   0.0082305
        k(  338) = (   0.3333333   0.4166667   0.4444444), wk =   0.0082305
        k(  339) = (   0.3333333   0.4166667  -0.5000000), wk =   0.0041152
        k(  340) = (   0.3333333  -0.5000000   0.3333333), wk =   0.0020576
        k(  341) = (   0.3333333  -0.5000000   0.3888889), wk =   0.0041152
        k(  342) = (   0.3333333  -0.5000000   0.4444444), wk =   0.0041152
        k(  343) = (   0.3333333  -0.5000000  -0.5000000), wk =   0.0020576
        k(  344) = (   0.3888889   0.0000000   0.3888889), wk =   0.0020576
        k(  345) = (   0.3888889   0.0000000   0.4444444), wk =   0.0041152
        k(  346) = (   0.3888889   0.0000000  -0.5000000), wk =   0.0020576
        k(  347) = (   0.3888889   0.0833333   0.3888889), wk =   0.0041152
        k(  348) = (   0.3888889   0.0833333   0.4444444), wk =   0.0082305
        k(  349) = (   0.3888889   0.0833333  -0.5000000), wk =   0.0041152
        k(  350) = (   0.3888889   0.1666667   0.3888889), wk =   0.0041152
        k(  351) = (   0.3888889   0.1666667   0.4444444), wk =   0.0082305
        k(  352) = (   0.3888889   0.1666667  -0.5000000), wk =   0.0041152
        k(  353) = (   0.3888889   0.2500000   0.3888889), wk =   0.0041152
        k(  354) = (   0.3888889   0.2500000   0.4444444), wk =   0.0082305
        k(  355) = (   0.3888889   0.2500000  -0.5000000), wk =   0.0041152
        k(  356) = (   0.3888889   0.3333333   0.3888889), wk =   0.0041152
        k(  357) = (   0.3888889   0.3333333   0.4444444), wk =   0.0082305
        k(  358) = (   0.3888889   0.3333333  -0.5000000), wk =   0.0041152
        k(  359) = (   0.3888889   0.4166667   0.3888889), wk =   0.0041152
        k(  360) = (   0.3888889   0.4166667   0.4444444), wk =   0.0082305
        k(  361) = (   0.3888889   0.4166667  -0.5000000), wk =   0.0041152
        k(  362) = (   0.3888889  -0.5000000   0.3888889), wk =   0.0020576
        k(  363) = (   0.3888889  -0.5000000   0.4444444), wk =   0.0041152
        k(  364) = (   0.3888889  -0.5000000  -0.5000000), wk =   0.0020576
        k(  365) = (   0.4444444   0.0000000   0.4444444), wk =   0.0020576
        k(  366) = (   0.4444444   0.0000000  -0.5000000), wk =   0.0020576
        k(  367) = (   0.4444444   0.0833333   0.4444444), wk =   0.0041152
        k(  368) = (   0.4444444   0.0833333  -0.5000000), wk =   0.0041152
        k(  369) = (   0.4444444   0.1666667   0.4444444), wk =   0.0041152
        k(  370) = (   0.4444444   0.1666667  -0.5000000), wk =   0.0041152
        k(  371) = (   0.4444444   0.2500000   0.4444444), wk =   0.0041152
        k(  372) = (   0.4444444   0.2500000  -0.5000000), wk =   0.0041152
        k(  373) = (   0.4444444   0.3333333   0.4444444), wk =   0.0041152
        k(  374) = (   0.4444444   0.3333333  -0.5000000), wk =   0.0041152
        k(  375) = (   0.4444444   0.4166667   0.4444444), wk =   0.0041152
        k(  376) = (   0.4444444   0.4166667  -0.5000000), wk =   0.0041152
        k(  377) = (   0.4444444  -0.5000000   0.4444444), wk =   0.0020576
        k(  378) = (   0.4444444  -0.5000000  -0.5000000), wk =   0.0020576
        k(  379) = (  -0.5000000   0.0000000  -0.5000000), wk =   0.0005144
        k(  380) = (  -0.5000000   0.0833333  -0.5000000), wk =   0.0010288
        k(  381) = (  -0.5000000   0.1666667  -0.5000000), wk =   0.0010288
        k(  382) = (  -0.5000000   0.2500000  -0.5000000), wk =   0.0010288
        k(  383) = (  -0.5000000   0.3333333  -0.5000000), wk =   0.0010288
        k(  384) = (  -0.5000000   0.4166667  -0.5000000), wk =   0.0010288
        k(  385) = (  -0.5000000  -0.5000000  -0.5000000), wk =   0.0005144

     Dense  grid:    14197 G-vectors     FFT dimensions: (  27,  40,  27)

     Smooth grid:     3579 G-vectors     FFT dimensions: (  18,  24,  18)

     Dynamical RAM for                 wfc:       0.01 MB

     Dynamical RAM for     wfc (w. buffer):       0.51 MB

     Dynamical RAM for           str. fact:       0.01 MB

     Dynamical RAM for           local pot:       0.00 MB

     Dynamical RAM for          nlocal pot:       0.02 MB

     Dynamical RAM for                qrad:       1.39 MB

     Dynamical RAM for          rho,v,vnew:       0.09 MB

     Dynamical RAM for               rhoin:       0.03 MB

     Dynamical RAM for            rho*nmix:       0.22 MB

     Dynamical RAM for           G-vectors:       0.05 MB

     Dynamical RAM for          h,s,v(r/c):       0.11 MB

     Dynamical RAM for          <psi|beta>:       0.01 MB

     Dynamical RAM for                 psi:       0.02 MB

     Dynamical RAM for                hpsi:       0.02 MB

     Dynamical RAM for                spsi:       0.02 MB

     Dynamical RAM for      wfcinit/wfcrot:       0.03 MB

     Dynamical RAM for           addusdens:       0.33 MB

     Estimated static dynamical RAM per process >       2.21 MB

     Estimated max dynamical RAM per process >       2.76 MB

     Estimated total dynamical RAM >     328.80 MB

     Initial potential from superposition of free atoms

     starting charge   21.97635, renormalised to   22.00000
     Starting wfcs are   18 randomized atomic wfcs +    6 random wfcs

     total cpu time spent up to now is        1.4 secs

     Self-consistent Calculation

     iteration #  1     ecut=    30.00 Ry     beta= 0.70
     Davidson diagonalization with overlap

---- Real-time Memory Report at c_bands before calling an iterative solver
           254 MiB given to the printing process from OS
             0 MiB allocation reported by mallinfo(arena+hblkhd)
        224314 MiB available memory on the node where the printing process lives
------------------
     ethr =  1.00E-02,  avg # of iterations =  5.0

     total cpu time spent up to now is        1.9 secs

     total energy              =    -242.81368336 Ry
     estimated scf accuracy    <       0.27336875 Ry

     iteration #  2     ecut=    30.00 Ry     beta= 0.70
     Davidson diagonalization with overlap

---- Real-time Memory Report at c_bands before calling an iterative solver
           286 MiB given to the printing process from OS
             0 MiB allocation reported by mallinfo(arena+hblkhd)
        224243 MiB available memory on the node where the printing process lives
------------------
     ethr =  1.24E-03,  avg # of iterations =  2.0

     total cpu time spent up to now is        2.3 secs

     total energy              =    -242.85628905 Ry
     estimated scf accuracy    <       0.80805458 Ry

     iteration #  3     ecut=    30.00 Ry     beta= 0.70
     Davidson diagonalization with overlap

---- Real-time Memory Report at c_bands before calling an iterative solver
           289 MiB given to the printing process from OS
             0 MiB allocation reported by mallinfo(arena+hblkhd)
        224236 MiB available memory on the node where the printing process lives
------------------
     ethr =  1.24E-03,  avg # of iterations =  2.0

     total cpu time spent up to now is        2.5 secs

     total energy              =    -242.97752932 Ry
     estimated scf accuracy    <       0.00210778 Ry

     iteration #  4     ecut=    30.00 Ry     beta= 0.70
     Davidson diagonalization with overlap

---- Real-time Memory Report at c_bands before calling an iterative solver
           290 MiB given to the printing process from OS
             0 MiB allocation reported by mallinfo(arena+hblkhd)
        224236 MiB available memory on the node where the printing process lives
------------------
     ethr =  9.58E-06,  avg # of iterations =  6.1

     total cpu time spent up to now is        3.2 secs

     total energy              =    -242.97814792 Ry
     estimated scf accuracy    <       0.00027816 Ry

     iteration #  5     ecut=    30.00 Ry     beta= 0.70
     Davidson diagonalization with overlap

---- Real-time Memory Report at c_bands before calling an iterative solver
           290 MiB given to the printing process from OS
             0 MiB allocation reported by mallinfo(arena+hblkhd)
        224233 MiB available memory on the node where the printing process lives
------------------
     ethr =  1.26E-06,  avg # of iterations =  2.1

     total cpu time spent up to now is        3.5 secs

     total energy              =    -242.97821765 Ry
     estimated scf accuracy    <       0.00002007 Ry

     iteration #  6     ecut=    30.00 Ry     beta= 0.70
     Davidson diagonalization with overlap

---- Real-time Memory Report at c_bands before calling an iterative solver
           290 MiB given to the printing process from OS
             0 MiB allocation reported by mallinfo(arena+hblkhd)
        224233 MiB available memory on the node where the printing process lives
------------------
     ethr =  9.12E-08,  avg # of iterations =  1.5

     total cpu time spent up to now is        3.7 secs

     total energy              =    -242.97821720 Ry
     estimated scf accuracy    <       0.00000509 Ry

     iteration #  7     ecut=    30.00 Ry     beta= 0.70
     Davidson diagonalization with overlap

---- Real-time Memory Report at c_bands before calling an iterative solver
           290 MiB given to the printing process from OS
             0 MiB allocation reported by mallinfo(arena+hblkhd)
        224232 MiB available memory on the node where the printing process lives
------------------
     ethr =  2.31E-08,  avg # of iterations =  1.5

     total cpu time spent up to now is        4.0 secs

     total energy              =    -242.97821812 Ry
     estimated scf accuracy    <          7.5E-10 Ry

     iteration #  8     ecut=    30.00 Ry     beta= 0.70
     Davidson diagonalization with overlap

---- Real-time Memory Report at c_bands before calling an iterative solver
           290 MiB given to the printing process from OS
             0 MiB allocation reported by mallinfo(arena+hblkhd)
        224231 MiB available memory on the node where the printing process lives
------------------
     ethr =  3.40E-12,  avg # of iterations =  5.8

     total cpu time spent up to now is        4.5 secs

     total energy              =    -242.97821816 Ry
     estimated scf accuracy    <          2.0E-10 Ry

     iteration #  9     ecut=    30.00 Ry     beta= 0.70
     Davidson diagonalization with overlap

---- Real-time Memory Report at c_bands before calling an iterative solver
           291 MiB given to the printing process from OS
             0 MiB allocation reported by mallinfo(arena+hblkhd)
        224238 MiB available memory on the node where the printing process lives
------------------
     ethr =  9.19E-13,  avg # of iterations =  2.0

     total cpu time spent up to now is        4.8 secs

     total energy              =    -242.97821816 Ry
     estimated scf accuracy    <          2.0E-09 Ry

     iteration # 10     ecut=    30.00 Ry     beta= 0.70
     Davidson diagonalization with overlap

---- Real-time Memory Report at c_bands before calling an iterative solver
           291 MiB given to the printing process from OS
             0 MiB allocation reported by mallinfo(arena+hblkhd)
        224238 MiB available memory on the node where the printing process lives
------------------
     ethr =  9.19E-13,  avg # of iterations =  2.0

     total cpu time spent up to now is        5.1 secs

     End of self-consistent calculation

          k = 0.0000 0.0000 0.0000 (   451 PWs)   bands (ev):

     3.1164   7.6047   8.0682   9.4395   9.4395   9.4407  10.2423  10.2437
    10.7875  10.9553  10.9553  13.8792  19.4297  25.3666  25.3666  29.8536
    32.4320  34.9672  37.4482  37.4492  37.4492  40.0009  40.0009  40.0025

     occupation numbers 
     1.0000   1.0000   1.0000   1.0000   1.0000   1.0000   1.0000   1.0000
     1.0000   1.0000   1.0000   0.0000   0.0000   0.0000   0.0000   0.0000
     0.0000   0.0000   0.0000   0.0000   0.0000   0.0000   0.0000   0.0000

          k = 0.0000 0.0000 0.0556 (   455 PWs)   bands (ev):

     3.1908   7.6392   8.0886   9.4220   9.4525   9.4578  10.2308  10.2437
    10.7617  10.8312  10.9455  14.0801  19.4568  24.5046  25.4739  30.3196
    32.9782  34.6056  36.3358  36.8279  37.5544  40.0399  40.6642  41.1470

     occupation numbers 
     1.0000   1.0000   1.0000   1.0000   1.0000   1.0000   1.0000   1.0000
[...]
    24.0111  26.8098  32.8780  36.3683  38.3391  42.5621  43.7328  46.2266

     occupation numbers 
     1.0000   1.0000   1.0000   1.0000   1.0000   1.0000   1.0000   1.0000
     1.0000   1.0000   0.0000   0.0000   0.0000   0.0000   0.0000   0.0000
     0.0000   0.0000   0.0000   0.0000   0.0000   0.0000   0.0000   0.0000

          k = 0.3889 0.2357 0.4444 (   445 PWs)   bands (ev):

     8.1586   8.2276   8.4694   8.5039   9.4272   9.5375  10.3234  10.3791
    10.8217  10.8241  14.5005  16.5120  18.3280  20.6386  20.7179  22.6402
    23.3940  25.5538  33.7119  35.6781  38.8883  41.1996  44.3944  45.7913

     occupation numbers 
     1.0000   1.0000   1.0000   1.0000   1.0000   1.0000   1.0000   1.0000
     1.0000   1.0000   0.0000   0.0000   0.0000   0.0000   0.0000   0.0000
     0.0000   0.0000   0.0000   0.0000   0.0000   0.0000   0.0000   0.0000

          k = 0.3889 0.2357-0.5000 (   442 PWs)   bands (ev):

     8.1802   8.1802   8.4763   8.4763   9.5155   9.5155  10.3488  10.3488
    10.8594  10.8594  15.4857  15.4857  19.4745  19.4745  21.5007  21.5007
    24.3917  24.3917  34.6759  34.6759  39.9522  39.9522  45.1161  45.1161

     occupation numbers 
     1.0000   1.0000   1.0000   1.0000   1.0000   1.0000   1.0000   1.0000
     1.0000   1.0000   0.0000   0.0000   0.0000   0.0000   0.0000   0.0000
     0.0000   0.0000   0.0000   0.0000   0.0000   0.0000   0.0000   0.0000

          k = 0.3889 0.2946 0.3889 (   446 PWs)   bands (ev):

     8.3691   8.4771   8.5747   8.7310   9.0003   9.2128  10.1931  10.2502
    10.7230  10.7322  14.4039  16.2042  18.2532  20.4884  20.7623  22.0080
    24.5726  26.0518  34.8831  38.6176  38.8458  42.8772  43.5615  44.6104

     occupation numbers 
     1.0000   1.0000   1.0000   1.0000   1.0000   1.0000   1.0000   1.0000
     1.0000   1.0000   0.0000   0.0000   0.0000   0.0000   0.0000   0.0000
     0.0000   0.0000   0.0000   0.0000   0.0000   0.0000   0.0000   0.0000

          k = 0.3889 0.2946 0.4444 (   447 PWs)   bands (ev):

     8.3551   8.4005   8.6042   8.6828   9.1112   9.2311  10.2152  10.2492
    10.8159  10.8161  15.3000  17.0391  17.6173  19.5654  21.0934  22.4549
    23.2193  24.6971  35.8045  37.7846  40.0153  42.7168  43.0027  43.7675

     occupation numbers 
     1.0000   1.0000   1.0000   1.0000   1.0000   1.0000   1.0000   1.0000
     1.0000   1.0000   0.0000   0.0000   0.0000   0.0000   0.0000   0.0000
     0.0000   0.0000   0.0000   0.0000   0.0000   0.0000   0.0000   0.0000

          k = 0.3889 0.2946-0.5000 (   444 PWs)   bands (ev):

     8.3598   8.3599   8.6355   8.6355   9.2020   9.2020  10.2302  10.2302
    10.8521  10.8521  16.3112  16.3112  18.3838  18.3838  22.0132  22.0132
    23.4884  23.4884  36.7903  36.7903  41.3448  41.3448  43.3513  43.3513

     occupation numbers 
     1.0000   1.0000   1.0000   1.0000   1.0000   1.0000   1.0000   1.0000
     1.0000   1.0000   0.0000   0.0000   0.0000   0.0000   0.0000   0.0000
     0.0000   0.0000   0.0000   0.0000   0.0000   0.0000   0.0000   0.0000

          k = 0.3889-0.3536 0.3889 (   450 PWs)   bands (ev):

     8.5111   8.5111   8.7417   8.7417   8.9552   8.9552  10.1726  10.1726
    10.7250  10.7250  15.2469  15.2469  19.3240  19.3240  21.3111  21.3111
    25.2664  25.2664  37.0771  37.0771  41.0183  41.0183  44.3914  44.3914

     occupation numbers 
     1.0000   1.0000   1.0000   1.0000   1.0000   1.0000   1.0000   1.0000
     1.0000   1.0000   0.0000   0.0000   0.0000   0.0000   0.0000   0.0000
     0.0000   0.0000   0.0000   0.0000   0.0000   0.0000   0.0000   0.0000

          k = 0.3889-0.3536 0.4444 (   444 PWs)   bands (ev):

     8.4608   8.4608   8.7585   8.7585   8.9939   8.9939  10.1817  10.1817
    10.8140  10.8140  16.1746  16.1746  18.4979  18.4979  21.6990  21.6990
    23.8963  23.8963  37.9135  37.9135  40.6045  40.6045  44.1430  44.1430

     occupation numbers 
     1.0000   1.0000   1.0000   1.0000   1.0000   1.0000   1.0000   1.0000
     1.0000   1.0000   0.0000   0.0000   0.0000   0.0000   0.0000   0.0000
     0.0000   0.0000   0.0000   0.0000   0.0000   0.0000   0.0000   0.0000

          k = 0.3889-0.3536-0.5000 (   444 PWs)   bands (ev):

     8.4413   8.4413   8.7495   8.7495   9.0259   9.0259  10.1795  10.1795
    10.8499  10.8499  16.9610  16.9610  17.6469  17.6469  22.5867  22.5867
    22.7763  22.7763  38.3578  38.3578  40.2642  40.2642  44.1448  44.1448

     occupation numbers 
     1.0000   1.0000   1.0000   1.0000   1.0000   1.0000   1.0000   1.0000
     1.0000   1.0000   0.0000   0.0000   0.0000   0.0000   0.0000   0.0000
     0.0000   0.0000   0.0000   0.0000   0.0000   0.0000   0.0000   0.0000

          k = 0.4444 0.0000 0.4444 (   446 PWs)   bands (ev):

     7.5998   7.6736   8.1062   8.1083  10.7048  10.7349  10.7696  10.8946
    10.8957  10.9554  13.0350  14.2651  19.4843  20.5704  24.4560  24.7595
    25.5845  25.5859  29.9174  30.9514  32.4903  33.3662  52.9411  53.8433

     occupation numbers 
     1.0000   1.0000   1.0000   1.0000   1.0000   1.0000   1.0000   1.0000
     1.0000   1.0000   0.0000   0.0000   0.0000   0.0000   0.0000   0.0000
     0.0000   0.0000   0.0000   0.0000   0.0000   0.0000   0.0000   0.0000

          k = 0.4444 0.0000-0.5000 (   444 PWs)   bands (ev):

     7.6222   7.6222   8.0871   8.0871  10.7663  10.7663  10.8730  10.8730
    10.9399  10.9399  13.7379  13.7379  19.7628  19.7628  25.1543  25.1543
    25.2533  25.2533  30.1828  30.1828  32.6969  32.6969  53.8002  53.8005

     occupation numbers 
     1.0000   1.0000   1.0000   1.0000   1.0000   1.0000   1.0000   1.0000
     1.0000   1.0000   0.0000   0.0000   0.0000   0.0000   0.0000   0.0000
     0.0000   0.0000   0.0000   0.0000   0.0000   0.0000   0.0000   0.0000

          k = 0.4444 0.0589 0.4444 (   446 PWs)   bands (ev):

     7.6404   7.7108   8.1286   8.1300  10.6110  10.6857  10.7080  10.7854
    10.8956  10.9277  13.2585  14.4621  19.5152  20.6169  23.2439  25.0157
    25.2119  25.6303  30.5944  30.7896  33.0430  34.1595  52.8342  52.9673

     occupation numbers 
     1.0000   1.0000   1.0000   1.0000   1.0000   1.0000   1.0000   1.0000
     1.0000   1.0000   0.0000   0.0000   0.0000   0.0000   0.0000   0.0000
     0.0000   0.0000   0.0000   0.0000   0.0000   0.0000   0.0000   0.0000

          k = 0.4444 0.0589-0.5000 (   444 PWs)   bands (ev):

     7.6610   7.6610   8.1097   8.1097  10.7253  10.7253  10.7501  10.7501
    10.9320  10.9321  13.9506  13.9506  19.7993  19.7993  24.1655  24.1655
    25.5261  25.5261  30.5490  30.5490  33.3358  33.3358  53.3221  53.3222

     occupation numbers 
     1.0000   1.0000   1.0000   1.0000   1.0000   1.0000   1.0000   1.0000
     1.0000   1.0000   0.0000   0.0000   0.0000   0.0000   0.0000   0.0000
     0.0000   0.0000   0.0000   0.0000   0.0000   0.0000   0.0000   0.0000

          k = 0.4444 0.1179 0.4444 (   448 PWs)   bands (ev):

     7.7566   7.8174   8.1953   8.1962  10.3359  10.3397  10.6295  10.6829
    10.8953  10.9029  13.7998  14.9879  19.6090  20.7598  21.8596  23.8313
    24.3534  25.7738  31.2553  32.1000  34.4362  35.8040  50.4730  51.2950

     occupation numbers 
     1.0000   1.0000   1.0000   1.0000   1.0000   1.0000   1.0000   1.0000
     1.0000   1.0000   0.0000   0.0000   0.0000   0.0000   0.0000   0.0000
     0.0000   0.0000   0.0000   0.0000   0.0000   0.0000   0.0000   0.0000

          k = 0.4444 0.1179-0.5000 (   444 PWs)   bands (ev):

     7.7722   7.7722   8.1780   8.1780  10.3971  10.3971  10.6608  10.6608
    10.9282  10.9282  14.4962  14.4962  19.9121  19.9121  22.8947  22.8947
    24.9788  24.9788  31.7314  31.7314  34.8349  34.8349  51.0512  51.0514

     occupation numbers 
     1.0000   1.0000   1.0000   1.0000   1.0000   1.0000   1.0000   1.0000
     1.0000   1.0000   0.0000   0.0000   0.0000   0.0000   0.0000   0.0000
     0.0000   0.0000   0.0000   0.0000   0.0000   0.0000   0.0000   0.0000

          k = 0.4444 0.1768 0.4444 (   445 PWs)   bands (ev):

     7.9314   7.9775   8.3039   8.3100   9.9284   9.9723  10.5081  10.5531
    10.8945  10.8948  14.5032  15.7346  19.7507  20.5674  21.0082  22.5113
    23.3698  25.1328  32.6714  33.9575  36.2846  37.7783  47.6845  48.6180

     occupation numbers 
     1.0000   1.0000   1.0000   1.0000   1.0000   1.0000   1.0000   1.0000
     1.0000   1.0000   0.0000   0.0000   0.0000   0.0000   0.0000   0.0000
     0.0000   0.0000   0.0000   0.0000   0.0000   0.0000   0.0000   0.0000

          k = 0.4444 0.1768-0.5000 (   446 PWs)   bands (ev):

     7.9388   7.9388   8.2925   8.2925   9.9950   9.9950  10.5349  10.5349
    10.9264  10.9265  15.2399  15.2399  20.1091  20.1091  21.6127  21.6127
    24.0481  24.0481  33.4596  33.4596  36.7420  36.7420  48.2935  48.2935

     occupation numbers 
     1.0000   1.0000   1.0000   1.0000   1.0000   1.0000   1.0000   1.0000
     1.0000   1.0000   0.0000   0.0000   0.0000   0.0000   0.0000   0.0000
     0.0000   0.0000   0.0000   0.0000   0.0000   0.0000   0.0000   0.0000

          k = 0.4444 0.2357 0.4444 (   445 PWs)   bands (ev):

     8.1323   8.1632   8.4528   8.4716   9.5328   9.5980  10.3652  10.4006
    10.8921  10.8941  15.3026  16.6318  19.2338  20.1244  21.1990  21.3710
    22.4496  24.2339  34.5892  36.0260  38.3183  39.9200  44.9973  45.8611

     occupation numbers 
     1.0000   1.0000   1.0000   1.0000   1.0000   1.0000   1.0000   1.0000
     1.0000   1.0000   0.0000   0.0000   0.0000   0.0000   0.0000   0.0000
     0.0000   0.0000   0.0000   0.0000   0.0000   0.0000   0.0000   0.0000

          k = 0.4444 0.2357-0.5000 (   442 PWs)   bands (ev):

     8.1297   8.1297   8.4536   8.4536   9.5986   9.5986  10.3854  10.3854
    10.9256  10.9256  16.1068  16.1068  20.2654  20.2654  20.5296  20.5296
    23.0769  23.0769  35.4794  35.4794  38.8422  38.8422  45.5507  45.5507

     occupation numbers 
     1.0000   1.0000   1.0000   1.0000   1.0000   1.0000   1.0000   1.0000
     1.0000   1.0000   0.0000   0.0000   0.0000   0.0000   0.0000   0.0000
     0.0000   0.0000   0.0000   0.0000   0.0000   0.0000   0.0000   0.0000

          k = 0.4444 0.2946 0.4444 (   439 PWs)   bands (ev):

     8.3072   8.3254   8.6398   8.6821   9.1790   9.2493  10.2428  10.2639
    10.8918  10.8932  16.1755  17.6434  18.1412  19.9391  20.4707  21.5733
    21.9540  23.3436  36.7454  38.2641  39.9403  42.0265  42.9105  43.1938

     occupation numbers 
     1.0000   1.0000   1.0000   1.0000   1.0000   1.0000   1.0000   1.0000
     1.0000   1.0000   0.0000   0.0000   0.0000   0.0000   0.0000   0.0000
     0.0000   0.0000   0.0000   0.0000   0.0000   0.0000   0.0000   0.0000

          k = 0.4444 0.2946-0.5000 (   436 PWs)   bands (ev):

     8.2936   8.2936   8.6612   8.6612   9.2384   9.2384  10.2541  10.2541
    10.9253  10.9253  17.0601  17.0601  19.1966  19.1966  20.8646  20.8646
    22.2044  22.2044  37.6731  37.6731  40.8122  40.8122  43.0634  43.0634

     occupation numbers 
     1.0000   1.0000   1.0000   1.0000   1.0000   1.0000   1.0000   1.0000
     1.0000   1.0000   0.0000   0.0000   0.0000   0.0000   0.0000   0.0000
     0.0000   0.0000   0.0000   0.0000   0.0000   0.0000   0.0000   0.0000

          k = 0.4444-0.3536 0.4444 (   444 PWs)   bands (ev):

     8.3865   8.3865   8.8788   8.8788   8.9419   8.9419  10.1994  10.1994
    10.8924  10.8924  17.1195  17.1195  18.7500  18.7500  20.9677  20.9677
    22.5600  22.5600  38.9337  38.9337  40.6566  40.6566  43.0439  43.0439

     occupation numbers 
     1.0000   1.0000   1.0000   1.0000   1.0000   1.0000   1.0000   1.0000
     1.0000   1.0000   0.0000   0.0000   0.0000   0.0000   0.0000   0.0000
     0.0000   0.0000   0.0000   0.0000   0.0000   0.0000   0.0000   0.0000

          k = 0.4444-0.3536-0.5000 (   444 PWs)   bands (ev):

     8.3611   8.3611   8.8873   8.8873   8.9590   8.9590  10.1995  10.1995
    10.9252  10.9252  17.9692  17.9692  18.2240  18.2240  21.3154  21.3154
    21.5946  21.5946  39.5741  39.5741  40.4611  40.4611  42.6035  42.6035

     occupation numbers 
     1.0000   1.0000   1.0000   1.0000   1.0000   1.0000   1.0000   1.0000
     1.0000   1.0000   0.0000   0.0000   0.0000   0.0000   0.0000   0.0000
     0.0000   0.0000   0.0000   0.0000   0.0000   0.0000   0.0000   0.0000

          k =-0.5000 0.0000-0.5000 (   444 PWs)   bands (ev):

     7.6052   7.6052   8.0671   8.0671  10.7864  10.7864  10.9553  10.9553
    10.9564  10.9564  13.8799  13.8799  19.4297  19.4297  25.3661  25.3661
    25.3675  25.3675  29.8528  29.8528  32.4323  32.4323  53.9693  53.9708

     occupation numbers 
     1.0000   1.0000   1.0000   1.0000   1.0000   1.0000   1.0000   1.0000
     1.0000   1.0000   0.0000   0.0000   0.0000   0.0000   0.0000   0.0000
     0.0000   0.0000   0.0000   0.0000   0.0000   0.0000   0.0000   0.0000

          k =-0.5000 0.0589-0.5000 (   444 PWs)   bands (ev):

     7.6440   7.6440   8.0903   8.0903  10.7573  10.7573  10.8063  10.8063
    10.9564  10.9564  14.1041  14.1041  19.4602  19.4602  24.8120  24.8120
    25.0049  25.0049  30.5142  30.5142  32.9772  32.9772  53.6034  53.6042

     occupation numbers 
     1.0000   1.0000   1.0000   1.0000   1.0000   1.0000   1.0000   1.0000
     1.0000   1.0000   0.0000   0.0000   0.0000   0.0000   0.0000   0.0000
     0.0000   0.0000   0.0000   0.0000   0.0000   0.0000   0.0000   0.0000

          k =-0.5000 0.1179-0.5000 (   448 PWs)   bands (ev):

     7.7552   7.7552   8.1602   8.1602  10.4556  10.4556  10.6726  10.6726
    10.9566  10.9566  14.6800  14.6800  19.5548  19.5548  23.6424  23.6424
    24.1675  24.1675  32.0023  32.0023  34.3608  34.3608  51.2727  51.2727

     occupation numbers 
     1.0000   1.0000   1.0000   1.0000   1.0000   1.0000   1.0000   1.0000
     1.0000   1.0000   0.0000   0.0000   0.0000   0.0000   0.0000   0.0000
     0.0000   0.0000   0.0000   0.0000   0.0000   0.0000   0.0000   0.0000

          k =-0.5000 0.1768-0.5000 (   452 PWs)   bands (ev):

     7.9213   7.9213   8.2780   8.2780  10.0403  10.0403  10.5423  10.5423
    10.9567  10.9568  15.4687  15.4687  19.7220  19.7220  22.3276  22.3276
    23.2037  23.2037  33.8497  33.8497  36.2153  36.2153  48.5066  48.5066

     occupation numbers 
     1.0000   1.0000   1.0000   1.0000   1.0000   1.0000   1.0000   1.0000
     1.0000   1.0000   0.0000   0.0000   0.0000   0.0000   0.0000   0.0000
     0.0000   0.0000   0.0000   0.0000   0.0000   0.0000   0.0000   0.0000

          k =-0.5000 0.2357-0.5000 (   432 PWs)   bands (ev):

     8.1102   8.1102   8.4457   8.4457   9.6320   9.6320  10.3891  10.3892
    10.9570  10.9570  16.3962  16.3962  19.9749  19.9749  21.0144  21.0144
    22.2976  22.2976  35.9121  35.9121  38.3059  38.3059  45.7388  45.7389

     occupation numbers 
     1.0000   1.0000   1.0000   1.0000   1.0000   1.0000   1.0000   1.0000
     1.0000   1.0000   0.0000   0.0000   0.0000   0.0000   0.0000   0.0000
     0.0000   0.0000   0.0000   0.0000   0.0000   0.0000   0.0000   0.0000

          k =-0.5000 0.2946-0.5000 (   440 PWs)   bands (ev):

     8.2695   8.2695   8.6646   8.6646   9.2600   9.2600  10.2556  10.2556
    10.9571  10.9571  17.4289  17.4289  19.7490  19.7490  20.3234  20.3234
    21.5301  21.5301  38.1461  38.1461  40.3778  40.3778  43.0712  43.0712

     occupation numbers 
     1.0000   1.0000   1.0000   1.0000   1.0000   1.0000   1.0000   1.0000
     1.0000   1.0000   0.0000   0.0000   0.0000   0.0000   0.0000   0.0000
     0.0000   0.0000   0.0000   0.0000   0.0000   0.0000   0.0000   0.0000

          k =-0.5000-0.3536-0.5000 (   448 PWs)   bands (ev):

     8.3342   8.3342   8.9362   8.9362   8.9362   8.9362  10.2003  10.2003
    10.9571  10.9571  18.5502  18.5502  18.5502  18.5502  20.6467  20.6467
    21.0631  21.0631  40.5357  40.5357  40.5357  40.5357  41.5334  41.5334

     occupation numbers 
     1.0000   1.0000   1.0000   1.0000   1.0000   1.0000   1.0000   1.0000
     1.0000   1.0000   0.0000   0.0000   0.0000   0.0000   0.0000   0.0000
     0.0000   0.0000   0.0000   0.0000   0.0000   0.0000   0.0000   0.0000

     the Fermi energy is    12.4181 ev

!    total energy              =    -242.97821816 Ry
     estimated scf accuracy    <          5.1E-12 Ry
     smearing contrib. (-TS)   =      -0.00005553 Ry
     internal energy E=F+TS    =    -242.97816264 Ry

     The total energy is F=E-TS. E is the sum of the following terms:
     one-electron contribution =     -58.06589284 Ry
     hartree contribution      =      62.43527440 Ry
     xc contribution           =     -85.60545510 Ry
     ewald contribution        =    -161.74208909 Ry

     convergence has been achieved in  10 iterations

     Writing output data file ./Cu.save/
 
     init_run     :      0.31s CPU      0.81s WALL (       1 calls)
     electrons    :      3.42s CPU      3.85s WALL (       1 calls)

     Called by init_run:
     wfcinit      :      0.07s CPU      0.11s WALL (       1 calls)
     wfcinit:atom :      0.00s CPU      0.00s WALL (      49 calls)
     wfcinit:wfcr :      0.07s CPU      0.09s WALL (      49 calls)
     potinit      :      0.01s CPU      0.04s WALL (       1 calls)
     hinit0       :      0.22s CPU      0.54s WALL (       1 calls)

     Called by electrons:
     c_bands      :      3.05s CPU      3.28s WALL (      10 calls)
     sum_band     :      0.33s CPU      0.38s WALL (      10 calls)
     v_of_rho     :      0.01s CPU      0.04s WALL (      11 calls)
     v_h          :      0.00s CPU      0.00s WALL (      11 calls)
     v_xc         :      0.01s CPU      0.03s WALL (      11 calls)
     newd         :      0.00s CPU      0.01s WALL (      11 calls)
     mix_rho      :      0.00s CPU      0.00s WALL (      10 calls)

     Called by c_bands:
     init_us_2    :      0.01s CPU      0.01s WALL (    1029 calls)
     cegterg      :      2.57s CPU      2.71s WALL (     490 calls)

     Called by sum_band:
     sum_band:wei :      0.02s CPU      0.03s WALL (      10 calls)
     sum_band:loo :      0.28s CPU      0.31s WALL (      10 calls)
     sum_band:buf :      0.00s CPU      0.00s WALL (     490 calls)
     sum_band:ini :      0.00s CPU      0.00s WALL (     490 calls)
     sum_band:cal :      0.04s CPU      0.05s WALL (     490 calls)
     sum_band:bec :      0.00s CPU      0.01s WALL (     490 calls)
     addusdens    :      0.01s CPU      0.01s WALL (      10 calls)
     addusd:skk   :      0.00s CPU      0.00s WALL (      10 calls)
     addusd:dgemm :      0.00s CPU      0.00s WALL (      10 calls)
     addusd:qvan2 :      0.00s CPU      0.00s WALL (      10 calls)

     Called by *egterg:
     cdiaghg      :      0.96s CPU      0.98s WALL (    1984 calls)
     cegterg:over :      0.15s CPU      0.16s WALL (    1494 calls)
     cegterg:upda :      0.02s CPU      0.02s WALL (    1494 calls)
     cegterg:last :      0.05s CPU      0.05s WALL (    1064 calls)
     h_psi        :      1.34s CPU      1.45s WALL (    2033 calls)
     s_psi        :      0.04s CPU      0.04s WALL (    2033 calls)
     g_psi        :      0.00s CPU      0.00s WALL (    1494 calls)

     Called by h_psi:
     h_psi:calbec :      0.12s CPU      0.14s WALL (    2033 calls)
     vloc_psi     :      1.17s CPU      1.26s WALL (    2033 calls)
     add_vuspsi   :      0.04s CPU      0.04s WALL (    2033 calls)

     General routines
     calbec       :      0.16s CPU      0.18s WALL (    2523 calls)
     fft          :      0.01s CPU      0.01s WALL (     141 calls)
     ffts         :      0.00s CPU      0.00s WALL (      21 calls)
     fftw         :      1.31s CPU      1.41s WALL (   74078 calls)
     interpolate  :      0.00s CPU      0.00s WALL (      11 calls)
 
     Parallel routines
 
     PWSCF        :      4.87s CPU      8.89s WALL

 
   This run was terminated on:  22:46: 2  14Nov2022            

=------------------------------------------------------------------------------=
   JOB DONE.
=------------------------------------------------------------------------------=
TACC:  Shutdown complete. Exiting. 
